Title: * C:/Users/merch/OneDrive/Documents/LTSpice/RF/impedanceTransformers/imp_transfx/bw_control.asc
Date: Mon Aug 14 18:43:16 2017
Plotname: AC Analysis
Flags: complex forward linear
No. Variables: 10
No. Points:          500
Offset:   0.0000000000000000e+000
Command: Linear Technology Corporation LTspice XVII
Variables:
	0	frequency	frequency
	1	V(c)	voltage
	2	V(n01)	voltage
	3	V(out)	voltage
	4	I(C2)	device_current
	5	I(C1)	device_current
	6	I(L)	device_current
	7	I(Rl)	device_current
	8	I(Rt)	device_current
	9	I(Vcc)	device_current
Values:
0		7.910000000000000e+007,0.000000000000000e+000
	3.284085705740261e-003,4.048025860571056e-002
	1.000000000000000e+000,0.000000000000000e+000
	-4.150344131875147e-004,5.702694927533674e-003
	-3.158663863433870e-004,-2.298832779371298e-005
	-3.200167304752621e-004,3.403862148162375e-005
	5.193599133341141e-004,-4.213467320276586e-005
	-4.150344131875147e-006,5.702694927533674e-005
	1.993431828588520e-004,-8.096051721142111e-006
	-1.993431828588520e-004,8.096051721142111e-006
1		7.918657314629258e+007,0.000000000000000e+000
	3.314462529819979e-003,4.066528380100949e-002
	1.000000000000000e+000,0.000000000000000e+000
	-4.138571070030087e-004,5.729306548075267e-003
	-3.176876983454560e-004,-2.294820684919784e-005
	-3.218262694154861e-004,3.434485863155485e-005
	5.211633769095221e-004,-4.247791539175675e-005
	-4.138571070030087e-006,5.729306548075268e-005
	1.993371074940360e-004,-8.133056760201899e-006
	-1.993371074940360e-004,8.133056760201899e-006
2		7.927314629258516e+007,0.000000000000000e+000
	3.345218983617229e-003,4.085174307121549e-002
	1.000000000000000e+000,0.000000000000000e+000
	-4.126510002380809e-004,5.756126369725390e-003
	-3.195237941324809e-004,-2.290634443714015e-005
	-3.236503041348616e-004,3.465491926011374e-005
	5.229812603381381e-004,-4.282526787435684e-005
	-4.126510002380809e-006,5.756126369725389e-005
	1.993309562032766e-004,-8.170348614243098e-006
	-1.993309562032766e-004,8.170348614243098e-006
3		7.935971943887775e+007,0.000000000000000e+000
	3.376361267658424e-003,4.103965330694444e-002
	1.000000000000000e+000,0.000000000000000e+000
	-4.114155100388030e-004,5.783156875962228e-003
	-3.213748495780943e-004,-2.286270293001798e-005
	-3.254890046784824e-004,3.496886582960429e-005
	5.248137324249507e-004,-4.317679649099318e-005
	-4.114155100388031e-006,5.783156875962227e-005
	1.993247277464683e-004,-8.207930661388889e-006
	-1.993247277464683e-004,8.207930661388889e-006
4		7.944629258517033e+007,0.000000000000000e+000
	3.407895708196582e-003,4.122903166184995e-002
	1.000000000000000e+000,0.000000000000000e+000
	-4.101500403677580e-004,5.810400589432932e-003
	-3.232410433371691e-004,-2.281724382555783e-005
	-3.273425437408467e-004,3.528676206877150e-005
	5.266609645992073e-004,-4.353256840114149e-005
	-4.101500403677580e-006,5.810400589432933e-005
	1.993184208583607e-004,-8.245806332369990e-006
	-1.993184208583607e-004,8.245806332369990e-006
5		7.953286573146291e+007,0.000000000000000e+000
	3.439828760261282e-003,4.141989555770877e-002
	1.000000000000000e+000,0.000000000000000e+000
	-4.088539816620483e-004,5.837860072721535e-003
	-3.251225569004570e-004,-2.276992772369217e-005
	-3.292110967170774e-004,3.560867300352317e-005
	5.285231309650252e-004,-4.389265211506492e-005
	-4.088539816620483e-006,5.837860072721535e-005
	1.993120342479478e-004,-8.283979111541754e-006
	-1.993120342479478e-004,8.283979111541754e-006
6		7.961943887775549e+007,0.000000000000000e+000
	3.472167010794863e-003,4.161226268962365e-002
	1.000000000000000e+000,0.000000000000000e+000
	-4.075267104811771e-004,5.865537929134866e-003
	-3.270195746505110e-004,-2.272071430282831e-005
	-3.310948417553229e-004,3.593466498852036e-005
	5.304004083531639e-004,-4.425711752644509e-005
	-4.075267104811771e-006,5.865537929134866e-005
	1.993055665978410e-004,-8.322452537924730e-006
	-1.993055665978410e-004,8.322452537924730e-006
7		7.970601202404808e+007,0.000000000000000e+000
	3.504917181877616e-003,4.180615103134631e-002
	1.000000000000000e+000,0.000000000000000e+000
	-4.061675891444658e-004,5.893436803506908e-003
	-3.289322839189232e-004,-2.266956229540493e-005
	-3.329939598103679e-004,3.626480573966415e-005
	5.322929763739924e-004,-4.462603594593341e-005
	-4.061675891444659e-006,5.893436803506908e-005
	1.992990165636245e-004,-8.361230206269263e-006
	-1.992990165636245e-004,8.361230206269263e-006
8		7.979258517034066e+007,0.000000000000000e+000
	3.538086134044791e-003,4.200157884072342e-002
	1.000000000000000e+000,0.000000000000000e+000
	-4.047759653576609e-004,5.921559383022017e-003
	-3.308608750449077e-004,-2.261642946271286e-005
	-3.349086346984844e-004,3.659916436750730e-005
	5.342010174716755e-004,-4.499948013565198e-005
	-4.047759653576609e-006,5.921559383022017e-005
	1.992923827731911e-004,-8.400315768144684e-006
	-1.992923827731911e-004,8.400315768144684e-006
9		7.987915831663324e+007,0.000000000000000e+000
	3.571680869698567e-003,4.219856466526976e-002
	1.000000000000000e+000,0.000000000000000e+000
	-4.033511718283619e-004,5.949908398057701e-003
	-3.328055414352787e-004,-2.256127256895465e-005
	-3.368390531535622e-004,3.693781141162237e-005
	5.361247169796225e-004,-4.537752434467632e-005
	-4.033511718283619e-006,5.949908398057701e-005
	1.992856638260603e-004,-8.439712933053952e-006
	-1.992856638260603e-004,8.439712933053952e-006
10		7.996573146292582e+007,0.000000000000000e+000
	3.605708536617825e-003,4.239712734787063e-002
	1.000000000000000e+000,0.000000000000000e+000
	-4.018925258698904e-004,5.978486623047213e-003
	-3.347664796258432e-004,-2.250404735451707e-005
	-3.387854048845420e-004,3.728081887595504e-005
	5.380642631772184e-004,-4.576024434552916e-005
	-4.018925258698904e-006,5.978486623047213e-005
	1.992788582926765e-004,-8.479425469574126e-006
	-1.992788582926764e-004,8.479425469574126e-006
11		8.005230460921840e+007,0.000000000000000e+000
	3.640176431569251e-003,4.259728603261858e-002
	1.000000000000000e+000,0.000000000000000e+000
	-4.003993289932210e-004,6.007296877362839e-003
	-3.367438893442686e-004,-2.244470850843031e-005
	-3.407478826342008e-004,3.762826026519806e-005
	5.400198473478869e-004,-4.614771747172178e-005
	-4.003993289932210e-006,6.007296877362839e-005
	1.992719647136862e-004,-8.519457206523717e-006
	-1.992719647136862e-004,8.519457206523717e-006
12		8.013887775551099e+007,0.000000000000000e+000
	3.675092004022821e-003,4.279906017078671e-002
	1.000000000000000e+000,0.000000000000000e+000
	-3.988708664865470e-004,6.036342026220151e-003
	-3.387379735744472e-004,-2.238320963998489e-005
	-3.427266822393128e-004,3.798021062221663e-005
	5.419916638385083e-004,-4.654002265637397e-005
	-3.988708664865470e-006,6.036342026220152e-005
	1.992649815991955e-004,-8.559812034157342e-006
	-1.992649815991955e-004,8.559812034157342e-006
13		8.022545090180357e+007,0.000000000000000e+000
	3.710462859975268e-003,4.300246952694291e-002
	1.000000000000000e+000,0.000000000000000e+000
	-3.973064069820785e-004,6.065624981603970e-003
	-3.407489386224103e-004,-2.231950324947831e-005
	-3.447220026922310e-004,3.833674656656137e-005
	5.439799101202360e-004,-4.693724047194996e-005
	-3.973064069820785e-006,6.065624981603970e-005
	1.992579074280050e-004,-8.600493905388583e-006
	-1.992579074280050e-004,8.600493905388583e-006
14		8.031202404809615e+007,0.000000000000000e+000
	3.746296765885146e-003,4.320753418520921e-002
	1.000000000000000e+000,0.000000000000000e+000
	-3.957052020096213e-004,6.095148703216632e-003
	-3.427769941838318e-004,-2.225354069806081e-005
	-3.467340462039281e-004,3.869794633410551e-005
	5.459847868507510e-004,-4.733945317114735e-005
	-3.957052020096213e-006,6.095148703216633e-005
	1.992507406468230e-004,-8.641506837041841e-006
	-1.992507406468230e-004,8.641506837041841e-006
15		8.039859719438873e+007,0.000000000000000e+000
	3.782601652723040e-003,4.341427455566899e-002
	1.000000000000000e+000,0.000000000000000e+000
	-3.940664855364863e-004,6.124916199449090e-003
	-3.448223534131640e-004,-2.218527217664919e-005
	-3.487630182685289e-004,3.906388981784172e-005
	5.480064979379842e-004,-4.774674472897552e-005
	-3.940664855364863e-006,6.124916199449091e-005
	1.992434796694554e-004,-8.682854911133799e-006
	-1.992434796694554e-004,8.682854911133799e-006
16		8.048517034068131e+007,0.000000000000000e+000
	3.819385620140938e-003,4.362271138092756e-002
	1.000000000000000e+000,0.000000000000000e+000
	-3.923894734932607e-004,6.154930528375564e-003
	-3.468852329944526e-004,-2.211464667387629e-005
	-3.508091277293852e-004,3.943465860987937e-005
	5.500452506053570e-004,-4.815920088606488e-005
	-3.923894734932607e-006,6.154930528375565e-005
	1.992361228759718e-004,-8.724542276185512e-006
	-1.992361228759718e-004,8.724542276185512e-006
17		8.057174348697390e+007,0.000000000000000e+000
	3.856656940764717e-003,4.383286574282921e-002
	1.000000000000000e+000,0.000000000000000e+000
	-3.906733632849375e-004,6.185194798772403e-003
	-3.489658532138797e-004,-2.204161194304219e-005
	-3.528725868467291e-004,3.981033604468184e-005
	5.521012554585761e-004,-4.857690919324768e-005
	-3.906733632849375e-006,6.185194798772403e-005
	1.992286686118471e-004,-8.766573148565843e-006
	-1.992286686118471e-004,8.766573148565843e-006
18		8.065831663326648e+007,0.000000000000000e+000
	3.894424064613886e-003,4.404475906933587e-002
	1.000000000000000e+000,0.000000000000000e+000
	-3.889173332869091e-004,6.215712171161801e-003
	-3.510644380340822e-004,-2.196611446803244e-005
	-3.549536113669512e-004,4.019100724358556e-005
	5.541747265540285e-004,-4.899995905745274e-005
	-3.889173332869091e-006,6.215712171161801e-005
	1.992211151870772e-004,-8.808951813867175e-006
	-1.992211151870772e-004,8.808951813867175e-006
19		8.074488977955906e+007,0.000000000000000e+000
	3.932695623652806e-003,4.425841314157080e-002
	1.000000000000000e+000,0.000000000000000e+000
	-3.871205423252831e-004,6.246485858881024e-003
	-3.531812151702906e-004,-2.188809942816674e-005
	-3.570524205935434e-004,4.057675916064349e-005
	5.562658814688129e-004,-4.942844178895765e-005
	-3.871205423252831e-006,6.246485858881024e-005
	1.992134608752694e-004,-8.851682628314161e-006
	-1.992134608752695e-004,8.851682628314161e-006
20		8.083146292585164e+007,0.000000000000000e+000
	3.971480436478094e-003,4.447385010103329e-002
	1.000000000000000e+000,0.000000000000000e+000
	-3.852821291409769e-004,6.277519129178048e-003
	-3.553164161683525e-004,-2.180751066194028e-005
	-3.591692374597624e-004,4.096768062984020e-005
	5.583749413724668e-004,-4.986245065004687e-005
	-3.852821291409769e-006,6.277519129178048e-005
	1.992057039127044e-004,-8.894770020206658e-006
	-1.992057039127044e-004,8.894770020206658e-006
21		8.091803607214423e+007,0.000000000000000e+000
	4.010787513146576e-003,4.469109245698783e-002
	1.000000000000000e+000,0.000000000000000e+000
	-3.834012118370144e-004,6.308815304334125e-003
	-3.574702764846810e-004,-2.172429062961845e-005
	-3.613042886030511e-004,4.136386241372280e-005
	5.605021311004218e-004,-5.030208090512037e-005
	-3.834012118370144e-006,6.308815304334126e-005
	1.991978424973707e-004,-8.938218491397566e-006
	-1.991978424973707e-004,8.938218491397566e-006
22		8.100460921843681e+007,0.000000000000000e+000
	4.050626060148820e-003,4.491016309403347e-002
	1.000000000000000e+000,0.000000000000000e+000
	-3.814768873084315e-004,6.340377762814217e-003
	-3.596430355681905e-004,-2.163838037464407e-005
	-3.634578044412749e-004,4.176539725349809e-005
	5.626476792292451e-004,-5.074742987230479e-005
	-3.814768873084316e-006,6.340377762814217e-005
	1.991898747879702e-004,-8.982032618806695e-006
	-1.991898747879703e-004,8.982032618806695e-006
23		8.109118236472939e+007,0.000000000000000e+000
	4.091005485533140e-003,4.513108527985793e-002
	1.000000000000000e+000,0.000000000000000e+000
	-3.795082306541765e-004,6.372209940446022e-003
	-3.618349369442764e-004,-2.154971948381478e-005
	-3.656300192508182e-004,4.217237992064546e-005
	5.648118181537116e-004,-5.119859697661705e-005
	-3.795082306541765e-006,6.372209940446022e-005
	1.991817989028934e-004,-9.026217055971586e-006
	-1.991817989028934e-004,9.026217055971586e-006
24		8.117775551102197e+007,0.000000000000000e+000
	4.131935404185308e-003,4.535388267318194e-002
	1.000000000000000e+000,0.000000000000000e+000
	-3.774942945703536e-004,6.404315331628413e-003
	-3.640462283008940e-004,-2.145824604618602e-005
	-3.678211712465975e-004,4.258490727009811e-005
	5.669947841657604e-004,-5.165568380473450e-005
	-3.774942945703536e-006,6.404315331628413e-005
	1.991736129191629e-004,-9.070776534636389e-006
	-1.991736129191630e-004,9.070776534636389e-006
25		8.126432865731455e+007,0.000000000000000e+000
	4.173425643269408e-003,4.557857933189911e-002
	1.000000000000000e+000,0.000000000000000e+000
	-3.754341087241516e-004,6.436697490570166e-003
	-3.662771615768017e-004,-2.136389661065424e-005
	-3.700315026640432e-004,4.300307829504742e-005
	5.691968175353893e-004,-5.211879416142724e-005
	-3.754341087241516e-006,6.436697490570166e-005
	1.991653148713461e-004,-9.115715866379823e-006
	-1.991653148713461e-004,9.115715866379823e-006
26		8.135090180360714e+007,0.000000000000000e+000
	4.215486247835418e-003,4.580519972141695e-002
	1.000000000000000e+000,0.000000000000000e+000
	-3.733266791077526e-004,6.469360032559868e-003
	-3.685279930520302e-004,-2.126660614217194e-005
	-3.722612598431077e-004,4.342699418342675e-005
	5.714181625935407e-004,-5.258803412771014e-005
	-3.733266791077526e-006,6.469360032559868e-005
	1.991569027504329e-004,-9.161039944283391e-006
	-1.991569027504329e-004,9.161039944283391e-006
27		8.143747494989972e+007,0.000000000000000e+000
	4.258127486599257e-003,4.603376872320412e-002
	1.000000000000000e+000,0.000000000000000e+000
	-3.711709873715093e-004,6.502306635267767e-003
	-3.707989834406354e-004,-2.116630797654546e-005
	-3.745106933143505e-004,4.385675837613223e-005
	5.736590678170308e-004,-5.306351212077306e-005
	-3.711709873715093e-006,6.502306635267767e-005
	1.991483745026802e-004,-9.206753744640826e-006
	-1.991483745026802e-004,9.206753744640826e-006
28		8.152404809619230e+007,0.000000000000000e+000
	4.301359857901630e-003,4.626431164355117e-002
	1.000000000000000e+000,0.000000000000000e+000
	-3.689659901356229e-004,6.535541040080767e-003
	-3.730903979858170e-004,-2.106293377376288e-005
	-3.767800578871732e-004,4.429247662704479e-005
	5.759197859155928e-004,-5.354533895575504e-005
	-3.689659901356229e-006,6.535541040080767e-005
	1.991397280284197e-004,-9.252862328710234e-006
	-1.991397280284197e-004,9.252862328710234e-006
29		8.161062124248488e+007,0.000000000000000e+000
	4.345194095851648e-003,4.649685422254936e-002
	1.000000000000000e+000,0.000000000000000e+000
	-3.667106182795567e-004,6.569067053471245e-003
	-3.754025065574555e-004,-2.095641346979934e-005
	-3.790696127402512e-004,4.473425706491311e-005
	5.782005739210809e-004,-5.403362790942299e-005
	-3.667106182795567e-006,6.569067053471246e-005
	1.991309611808297e-004,-9.299370844509872e-006
	-1.991309611808297e-004,9.299370844509872e-006
30		8.169719438877747e+007,0.000000000000000e+000
	4.389641176661974e-003,4.673142264329451e-002
	1.000000000000000e+000,0.000000000000000e+000
	-3.644037762083594e-004,6.602888548400862e-003
	-3.777355837521488e-004,-2.084667522684276e-005
	-3.813796215142324e-004,4.518221025716588e-005
	5.805016932789000e-004,-5.452849478582478e-005
	-3.644037762083594e-006,6.602888548400863e-005
	1.991220717646676e-004,-9.346284528658902e-006
	-1.991220717646676e-004,9.346284528658902e-006
31		8.178376753507005e+007,0.000000000000000e+000
	4.434712325182337e-003,4.696804354132302e-002
	1.000000000000000e+000,0.000000000000000e+000
	-3.620443410950483e-004,6.637009465760392e-003
	-3.800899089958220e-004,-2.073364538188187e-005
	-3.837103524067724e-004,4.563644927572204e-005
	5.828234099417361e-004,-5.503005798398664e-005
	-3.620443410950483e-006,6.637009465760393e-005
	1.991130575349635e-004,-9.393608708264603e-006
	-1.991130575349635e-004,9.393608708264603e-006
32		8.187034068136263e+007,0.000000000000000e+000
	4.480419021638280e-003,4.720674401428496e-002
	1.000000000000000e+000,0.000000000000000e+000
	-3.596311620981848e-004,6.671433815846469e-003
	-3.824657666489782e-004,-2.061724839359638e-005
	-3.860620782699599e-004,4.609708976486831e-005
	5.851659944656323e-004,-5.553843856772530e-005
	-3.596311620981848e-006,6.671433815846469e-005
	1.991039161956723e-004,-9.441348802856991e-006
	-1.991039161956723e-004,9.441348802856991e-006
33		8.195691382765521e+007,0.000000000000000e+000
	4.526773008582803e-003,4.744755163186333e-002
	1.000000000000000e+000,0.000000000000000e+000
	-3.571630595537015e-004,6.706165679876610e-003
	-3.848634461146822e-004,-2.049740678748489e-005
	-3.884350767102192e-004,4.656425001128121e-005
	5.875297221085027e-004,-5.605376033765388e-005
	-3.571630595537015e-006,6.706165679876611e-005
	1.990946453982834e-004,-9.489510326372666e-006
	-1.990946453982835e-004,9.489510326372666e-006
34		8.204348697394779e+007,0.000000000000000e+000
	4.573786298068385e-003,4.769049444594498e-002
	1.000000000000000e+000,0.000000000000000e+000
	-3.546388241400444e-004,6.741209211543441e-003
	-3.872832419493480e-004,-2.037404109916579e-005
	-3.908296301907484e-004,4.703805101626861e-005
	5.899148729311348e-004,-5.657614990545760e-005
	-3.546388241400444e-006,6.741209211543441e-005
	1.990852427403863e-004,-9.538098889188997e-006
	-1.990852427403863e-004,9.538098889188997e-006
35		8.213006012024038e+007,0.000000000000000e+000
	4.621471179047304e-003,4.793560100105082e-002
	1.000000000000000e+000,0.000000000000000e+000
	-3.520572160156240e-004,6.776568638609309e-003
	-3.897254539764130e-004,-2.024706981578196e-005
	-3.932460261365692e-004,4.751861657031113e-005
	5.923217319007598e-004,-5.710573677052130e-005
	-3.520572160156240e-006,6.776568638609309e-005
	1.990757057641906e-004,-9.587120200210164e-006
	-1.990757057641906e-004,9.587120200210164e-006
36		8.221663326653296e+007,0.000000000000000e+000
	4.669840225008859e-003,4.818290034503412e-002
	1.000000000000000e+000,0.000000000000000e+000
	-3.494169639275297e-004,6.812248264542686e-003
	-3.921903874030010e-004,-2.011640931543733e-005
	-3.956845570422762e-004,4.800607332998952e-005
	5.947505889972745e-004,-5.764265339899635e-005
	-3.494169639275297e-006,6.812248264542686e-005
	1.990660319549982e-004,-9.636580069006824e-006
	-1.990660319549982e-004,9.636580069006824e-006
37		8.230320641282554e+007,0.000000000000000e+000
	4.718906301861768e-003,4.843242204005292e-002
	1.000000000000000e+000,0.000000000000000e+000
	-3.467167642904447e-004,6.848252470197360e-003
	-3.946783529396430e-004,-1.998197380459186e-005
	-3.981455205825474e-004,4.850055089738174e-005
	5.972017393221751e-004,-5.818703530539233e-005
	-3.467167642904447e-006,6.848252470197360e-005
	1.990562187396277e-004,-9.686484408010584e-006
	-1.990562187396277e-004,9.686484408010584e-006
38		8.238977955911812e+007,0.000000000000000e+000
	4.768682576070977e-003,4.868419617382593e-002
	1.000000000000000e+000,0.000000000000000e+000
	-3.439552802346156e-004,6.884585715535865e-003
	-3.971896669231637e-004,-1.984367525333612e-005
	-4.006292197255099e-004,4.900218190202253e-005
	5.996754832102957e-004,-5.873902113678772e-005
	-3.439552802346156e-006,6.884585715535865e-005
	1.990462634847858e-004,-9.736839234765186e-006
	-1.990462634847858e-004,9.736839234765186e-006
39		8.247635270541070e+007,0.000000000000000e+000
	4.819182523058274e-003,4.893825337118037e-002
	1.000000000000000e+000,0.000000000000000e+000
	-3.411311406217121e-004,6.921252541398534e-003
	-3.997246514428276e-004,-1.970142332846520e-005
	-4.031359628490447e-004,4.951110208552013e-005
	6.021721263444331e-004,-5.929875275975621e-005
	-3.411311406217122e-006,6.921252541398534e-005
	1.990361634953884e-004,-9.787650674236076e-006
	-1.990361634953884e-004,9.787650674236076e-006
40		8.256292585170329e+007,0.000000000000000e+000
	4.870419935876153e-003,4.919462480589893e-002
	1.000000000000000e+000,0.000000000000000e+000
	-3.382429390273517e-004,6.958257571319295e-003
	-4.022836344698334e-004,-1.955512532426740e-005
	-4.056660638601069e-004,5.002745038892554e-005
	6.046919798729316e-004,-5.986637535010533e-005
	-3.382429390273518e-006,6.958257571319295e-005
	1.990259160128248e-004,-9.838924961179787e-006
	-1.990259160128248e-004,9.838924961179787e-006
41		8.264949899799587e+007,0.000000000000000e+000
	4.922408934165628e-003,4.945334221287717e-002
	1.000000000000000e+000,0.000000000000000e+000
	-3.352892326890024e-004,6.995605513390071e-003
	-4.048669499902790e-004,-1.940468609093912e-005
	-4.082198423171691e-004,5.055136904296159e-005
	6.072353605303360e-004,-6.044203748553702e-005
	-3.352892326890024e-006,6.995605513390072e-005
	1.990155182131669e-004,-9.890668442575434e-006
	-1.990155182131669e-004,9.890668442575434e-006
42		8.273607214428845e+007,0.000000000000000e+000
	4.975163973407952e-003,4.971443790059788e-002
	1.000000000000000e+000,0.000000000000000e+000
	-3.322685414179511e-004,7.033301162174775e-003
	-4.074749381416801e-004,-1.925000796053520e-005
	-4.107976235558597e-004,5.108300366121255e-005
	6.098025907611780e-004,-6.102589124133213e-005
	-3.322685414179511e-006,7.033301162174775e-005
	1.990049672053184e-004,-9.942887580119576e-006
	-1.990049672053184e-004,9.942887580119576e-006
43		8.282264529058103e+007,0.000000000000000e+000
	5.028699854481876e-003,4.997794476393463e-002
	1.000000000000000e+000,0.000000000000000e+000
	-3.291793464739265e-004,7.071349400674894e-003
	-4.101079453531761e-004,-1.909099067035761e-005
	-4.133997388179153e-004,5.162250333639135e-005
	6.123939988470190e-004,-6.161809228917827e-005
	-3.291793464739265e-006,7.071349400674893e-005
	1.989942600291036e-004,-9.995588952786927e-006
	-1.989942600291036e-004,9.995588952786927e-006
44		8.290921843687362e+007,0.000000000000000e+000
	5.083031733537429e-003,5.024389629729189e-002
	1.000000000000000e+000,0.000000000000000e+000
	-3.260200894009449e-004,7.109755202347840e-003
	-4.127663244895143e-004,-1.892753128368359e-005
	-4.160265253835237e-004,5.217002073979481e-005
	6.150099190368162e-004,-6.221879999925318e-005
	-3.260200894009449e-006,7.109755202347840e-005
	1.989833936532925e-004,-1.004877925945838e-005
	-1.989833936532925e-004,1.004877925945838e-005
45		8.299579158316620e+007,0.000000000000000e+000
	5.138175132198661e-003,5.051232660809416e-002
	1.000000000000000e+000,0.000000000000000e+000
	-3.227891708228595e-004,7.148523633180091e-003
	-4.154504349989526e-004,-1.875952410772841e-005
	-4.186783267071812e-004,5.272571222407251e-005
	6.176506916807414e-004,-6.282817754569133e-005
	-3.227891708228595e-006,7.148523633180092e-005
	1.989723649735603e-004,-1.010246532161883e-005
	-1.989723649735603e-004,1.010246532161883e-005
46		8.308236472945878e+007,0.000000000000000e+000
	5.194145948107406e-003,5.078327043063260e-002
	1.000000000000000e+000,0.000000000000000e+000
	-3.194849491970369e-004,7.187659853816441e-003
	-4.181606430651805e-004,-1.858686060873398e-005
	-4.213554925571509e-004,5.328973792943044e-005
	6.203166633675294e-004,-6.344639201555697e-005
	-3.194849491970369e-006,7.187659853816441e-005
	1.989611708103785e-004,-1.015665408612652e-005
	-1.989611708103785e-004,1.015665408612652e-005
47		8.316893787575136e+007,0.000000000000000e+000
	5.250960465821450e-003,5.105676314028178e-002
	1.000000000000000e+000,0.000000000000000e+000
	-3.161057395245140e-004,7.227169121747430e-003
	-4.208973217634036e-004,-1.840942932406968e-005
	-4.240583791586489e-004,5.386226189340465e-005
	6.230081870654845e-004,-6.407361452146100e-005
	-3.161057395245140e-006,7.227169121747430e-005
	1.989498079068357e-004,-1.021135262805636e-005
	-1.989498079068357e-004,1.021135262805636e-005
48		8.325551102204394e+007,0.000000000000000e+000
	5.308635368080515e-003,5.133284076809667e-002
	1.000000000000000e+000,0.000000000000000e+000
	-3.126498120149190e-004,7.267056793556612e-003
	-4.236608512207105e-004,-1.822711577122668e-005
	-4.267873493408597e-004,5.444345216433944e-005
	6.257256222672435e-004,-6.471002031795876e-005
	-3.126498120149190e-006,7.267056793556612e-005
	1.989382729263839e-004,-1.026656815361933e-005
	-1.989382729263839e-004,1.026656815361933e-005
49		8.334208416833653e+007,0.000000000000000e+000
	5.367187747454196e-003,5.161154001580187e-002
	1.000000000000000e+000,0.000000000000000e+000
	-3.091153907043600e-004,7.307328327229507e-003
	-4.264516187808589e-004,-1.803980235358210e-005
	-4.295427726879025e-004,5.503348091871299e-005
	6.284693351384117e-004,-6.535578892187336e-005
	-3.091153907043601e-006,7.307328327229506e-005
	1.989265624505092e-004,-1.032230800316037e-005
	-1.989265624505092e-004,1.032230800316037e-005
50		8.342865731462911e+007,0.000000000000000e+000
	5.426635118386812e-003,5.189289827118557e-002
	1.000000000000000e+000,0.000000000000000e+000
	-3.055006520244040e-004,7.347989284526377e-003
	-4.292700191736291e-004,-1.784736826280293e-005
	-4.323250256938731e-004,5.563252458246084e-005
	6.312396986701958e-004,-6.601110423669796e-005
	-3.055006520244040e-006,7.347989284526378e-005
	1.989146729763227e-004,-1.037857965423711e-005
	-1.989146729763227e-004,1.037857965423711e-005
51		8.351523046092169e+007,0.000000000000000e+000
	5.486995429654357e-003,5.217695362390947e-002
	1.000000000000000e+000,0.000000000000000e+000
	-3.018037233201989e-004,7.389045333420567e-003
	-4.321164546888741e-004,-1.764968937775542e-005
	-4.351344919220760e-004,5.624076395645024e-005
	6.340370928361452e-004,-6.667615468123213e-005
	-3.018037233201989e-006,7.389045333420566e-005
	1.989026009140691e-004,-1.043539072478189e-005
	-1.989026009140691e-004,1.043539072478189e-005
52		8.360180360721427e+007,0.000000000000000e+000
	5.548287077249842e-003,5.246374488174902e-002
	1.000000000000000e+000,0.000000000000000e+000
	-2.980226813156801e-004,7.430502250604718e-003
	-4.349913353554327e-004,-1.744663815977769e-005
	-4.379715621685896e-004,5.685838434626950e-005
	6.368619047531396e-004,-6.735113332261929e-005
	-2.980226813156801e-006,7.430502250604718e-005
	1.988903425845500e-004,-1.049274897634980e-005
	-1.988903425845500e-004,1.049274897634980e-005
53		8.368837675350685e+007,0.000000000000000e+000
	5.610528917713901e-003,5.275331158727659e-002
	1.000000000000000e+000,0.000000000000000e+000
	-2.941555505237287e-004,7.472365924067038e-003
	-4.378950791250559e-004,-1.723808354416811e-005
	-4.408366346302931e-004,5.748557569650228e-005
	6.397145288467504e-004,-6.803623801395759e-005
	-2.941555505237287e-006,7.472365924067038e-005
	1.988778942164572e-004,-1.055066231745532e-005
	-1.988778942164572e-004,1.055066231745532e-005
54		8.377494989979944e+007,0.000000000000000e+000
	5.673740281927734e-003,5.304569403500025e-002
	1.000000000000000e+000,0.000000000000000e+000
	-2.902003015990650e-004,7.514642355739485e-003
	-4.408281120614918e-004,-1.702389082773619e-005
	-4.437301150774823e-004,5.812253272965866e-005
	6.425953670210968e-004,-6.873167153665871e-005
	-2.902003015990649e-006,7.514642355739485e-005
	1.988652519436145e-004,-1.060913880700005e-005
	-1.988652519436145e-004,1.060913880700005e-005
55		8.386152304609202e+007,0.000000000000000e+000
	5.737940989387501e-003,5.334093328897518e-002
	1.000000000000000e+000,0.000000000000000e+000
	-2.861548496315066e-004,7.557337664220816e-003
	-4.437908685349292e-004,-1.680392155225232e-005
	-4.466524170312441e-004,5.876945508995584e-005
	6.455048288333667e-004,-6.943764174775088e-005
	-2.861548496315066e-006,7.557337664220816e-005
	1.988524118021225e-004,-1.066818665779504e-005
	-1.988524118021225e-004,1.066818665779504e-005
56		8.394809619238460e+007,0.000000000000000e+000
	5.803151362978544e-003,5.363907120089925e-002
	1.000000000000000e+000,0.000000000000000e+000
	-2.820170523771869e-004,7.600458087576286e-003
	-4.467837914219371e-004,-1.657803338362977e-005
	-4.496039619457090e-004,5.942654749213309e-005
	6.484433316731133e-004,-7.015436173231295e-005
	-2.820170523771869e-006,7.600458087576285e-005
	1.988393697274043e-004,-1.072781424017985e-005
	-1.988393697274043e-004,1.072781424017985e-005
57		8.403466933867718e+007,0.000000000000000e+000
	5.869392244269879e-003,5.394015042871014e-002
	1.000000000000000e+000,0.000000000000000e+000
	-2.777847084251609e-004,7.644009986216871e-003
	-4.498073323111025e-004,-1.634607998666134e-005
	-4.525851793953540e-004,6.009401987550735e-005
	6.514113009465001e-004,-7.088204996124939e-005
	-2.777847084251609e-006,7.644009986216871e-005
	1.988261215511460e-004,-1.078803008574203e-005
	-1.988261215511460e-004,1.078803008574203e-005
58		8.412124248496977e+007,0.000000000000000e+000
	5.936685009349757e-003,5.424421445569917e-002
	1.000000000000000e+000,0.000000000000000e+000
	-2.734555552967290e-004,7.687999845860436e-003
	-4.528619517145425e-004,-1.610791089512579e-005
	-4.555965072675096e-004,6.077208756347856e-005
	6.544091702656397e-004,-7.162093045461839e-005
	-2.734555552967290e-006,7.687999845860436e-005
	1.988126629981301e-004,-1.084884289113984e-005
	-1.988126629981301e-004,1.084884289113984e-005
59		8.420781563126235e+007,0.000000000000000e+000
	6.005051585224059e-003,5.455130761015778e-002
	1.000000000000000e+000,0.000000000000000e+000
	-2.690272674746938e-004,7.732434280577565e-003
	-4.559481192854850e-004,-1.586337137707139e-005
	-4.586383919602319e-004,6.146097142870425e-005
	6.574373816431871e-004,-7.237123295073581e-005
	-2.690272674746938e-006,7.732434280577565e-005
	1.987989896829552e-004,-1.091026152203156e-005
	-1.987989896829552e-004,1.091026152203156e-005
60		8.429438877755493e+007,0.000000000000000e+000
	6.074514466800426e-003,5.486147508557403e-002
	1.000000000000000e+000,0.000000000000000e+000
	-2.644974543596212e-004,7.777320035924796e-003
	-4.590663140421170e-004,-1.561230229507408e-005
	-4.617112885857132e-004,6.216089806417386e-005
	6.604963856923532e-004,-7.313319308128866e-005
	-2.644974543596211e-006,7.777320035924797e-005
	1.987850971066399e-004,-1.097229501711481e-005
	-1.987850971066399e-004,1.097229501711481e-005
61		8.438096192384751e+007,0.000000000000000e+000
	6.145096734481959e-003,5.517476296139636e-002