Title: * C:/Users/merch/OneDrive/Documents/LTSpice/RF/impedanceTransformers/imp_transfx/bw_control.asc
Date: Wed Aug 23 04:48:56 2017
Plotname: AC Analysis
Flags: complex forward linear
No. Variables: 10
No. Points:          500
Offset:   0.0000000000000000e+000
Command: Linear Technology Corporation LTspice XVII
Variables:
	0	frequency	frequency
	1	V(c)	voltage
	2	V(n01)	voltage
	3	V(out)	voltage
	4	I(C2)	device_current
	5	I(C1)	device_current
	6	I(L)	device_current
	7	I(Rl)	device_current
	8	I(Rt)	device_current
	9	I(Vcc)	device_current
Values:
0		9.700000000000000e+007,0.000000000000000e+000
	1.479544344912991e-001,2.282346404902683e-001
	1.000000000000000e+000,0.000000000000000e+000
	4.351923910042605e-002,7.418465270332970e-002
	-1.135723640578670e-003,6.662540952238093e-004
	-1.092204401478244e-003,7.404387479271390e-004
	1.177408958029113e-003,-7.632622119761657e-004
	4.351923910042605e-005,7.418465270332971e-005
	8.520455655087009e-005,-2.282346404902683e-005
	-8.520455655087009e-005,2.282346404902683e-005
1		9.701202404809620e+007,0.000000000000000e+000
	1.487946477389597e-001,2.286084678821816e-001
	1.000000000000000e+000,0.000000000000000e+000
	4.377980702456138e-002,7.431436868108469e-002
	-1.137850545952527e-003,6.703263205850640e-004
	-1.094070738927965e-003,7.446406892661488e-004
	1.179191274154070e-003,-7.675015360543670e-004
	4.377980702456138e-005,7.431436868108469e-005
	8.512053522610404e-005,-2.286084678821816e-005
	-8.512053522610404e-005,2.286084678821816e-005
2		9.702404809619239e+007,0.000000000000000e+000
	1.496409087443663e-001,2.289812526082514e-001
	1.000000000000000e+000,0.000000000000000e+000
	4.404230156163575e-002,7.444383779737722e-002
	-1.139974163420199e-003,6.744290375582263e-004
	-1.095931861858563e-003,7.488728753556035e-004
	1.180967770984127e-003,-7.717710006164287e-004
	4.404230156163575e-005,7.444383779737721e-005
	8.503590912556338e-005,-2.289812526082514e-005
	-8.503590912556337e-005,2.289812526082514e-005
3		9.703607214428859e+007,0.000000000000000e+000
	1.504932620965604e-001,2.293529521515744e-001
	1.000000000000000e+000,0.000000000000000e+000
	4.430673739328594e-002,7.457304721886988e-002
	-1.142094295032296e-003,6.785624819628073e-004
	-1.097787557639010e-003,7.531355291816774e-004
	1.182738231429354e-003,-7.760708243968349e-004
	4.430673739328594e-005,7.457304721886988e-005
	8.495067379034396e-005,-2.293529521515744e-005
	-8.495067379034396e-005,2.293529521515744e-005
4		9.704809619238478e+007,0.000000000000000e+000
	1.513517525621697e-001,2.297235231875427e-001
	1.000000000000000e+000,0.000000000000000e+000
	4.457312926836564e-002,7.470198385925747e-002
	-1.144210738867298e-003,6.827268907593264e-004
	-1.099637609598933e-003,7.574288746185839e-004
	1.184502434342716e-003,-7.804012269373382e-004
	4.457312926836564e-005,7.470198385925747e-005
	8.486482474378304e-005,-2.297235231875427e-005
	-8.486482474378303e-005,2.297235231875427e-005
5		9.706012024048097e+007,0.000000000000000e+000
	1.522164250802655e-001,2.300929215709117e-001
	1.000000000000000e+000,0.000000000000000e+000
	4.484149200149608e-002,7.483063437510688e-002
	-1.146323288965432e-003,6.869225020277488e-004
	-1.101481796963936e-003,7.617531364028558e-004
	1.186260154455909e-003,-7.847624285599468e-004
	4.484149200149608e-005,7.483063437510689e-005
	8.477835749197346e-005,-2.300929215709117e-005
	-8.477835749197346e-005,2.300929215709117e-005
6		9.707214428857717e+007,0.000000000000000e+000
	1.530873247569965e-001,2.304611023227123e-001
	1.000000000000000e+000,0.000000000000000e+000
	4.511184047154881e-002,7.495898516164558e-002
	-1.148431735261704e-003,6.911495549448633e-004
	-1.103319894790155e-003,7.661085401065088e-004
	1.188011162314455e-003,-7.891546503387801e-004
	4.511184047154881e-005,7.495898516164558e-005
	8.469126752430035e-005,-2.304611023227123e-005
	-8.469126752430035e-005,2.304611023227123e-005
7		9.708416833667336e+007,0.000000000000000e+000
	1.539644968599721e-001,2.308280196170016e-001
	1.000000000000000e+000,0.000000000000000e+000
	4.538418962005085e-002,7.508702234849479e-002
	-1.150535863518043e-003,6.954082897604547e-004
	-1.105151673897992e-003,7.704953121089494e-004
	1.189755224211995e-003,-7.935781140706496e-004
	4.538418962005085e-005,7.508702234849479e-005
	8.460355031400280e-005,-2.308280196170016e-005
	-8.460355031400280e-005,2.308280196170016e-005
8		9.709619238476956e+007,0.000000000000000e+000
	1.548479868124113e-001,2.311936267674599e-001
	1.000000000000000e+000,0.000000000000000e+000
	4.565855444951832e-002,7.521473179535160e-002
	-1.152635455254610e-003,6.996989477723620e-004
	-1.106976900805092e-003,7.749136795677138e-004
	1.191492102123851e-003,-7.980330422444597e-004
	4.565855444951832e-005,7.521473179535160e-005
	8.451520131875888e-005,-2.311936267674599e-005
	-8.451520131875888e-005,2.311936267674599e-005
9		9.710821643286575e+007,0.000000000000000e+000
	1.557378401870229e-001,2.315578762138242e-001
	1.000000000000000e+000,0.000000000000000e+000
	4.593495002170711e-002,7.534209908761515e-002
	-1.154730287680200e-003,7.040217713002460e-004
	-1.108795337658493e-003,7.793638703878611e-004
	1.193221553639790e-003,-8.025196580092434e-004
	4.593495002170711e-005,7.534209908761515e-005
	8.442621598129771e-005,-2.315578762138242e-005
	-8.442621598129771e-005,2.315578762138242e-005
10		9.712024048096195e+007,0.000000000000000e+000
	1.566341026996418e-001,2.319207195081709e-001
	1.000000000000000e+000,0.000000000000000e+000
	4.621339145578839e-002,7.546910953196201e-002
	-1.156820133621820e-003,7.083770036581845e-004
	-1.110606742166031e-003,7.838461131901465e-004
	1.194943331896067e-003,-8.070381851409637e-004
	4.621339145578838e-005,7.546910953196201e-005
	8.433658973003582e-005,-2.319207195081709e-005
	-8.433658973003583e-005,2.319207195081709e-005
11		9.713226452905814e+007,0.000000000000000e+000
	1.575368202025819e-001,2.322821073010354e-001
	1.000000000000000e+000,0.000000000000000e+000
	4.649389392643710e-002,7.559574815186609e-002
	-1.158904761453359e-003,7.127648891259140e-004
	-1.112410867526922e-003,7.883606372777802e-004
	1.196657185506664e-003,-8.115888480078838e-004
	4.649389392643710e-005,7.559574815186610e-005
	8.424631797974181e-005,-2.322821073010354e-005
	-8.424631797974181e-005,2.322821073010354e-005
12		9.714428857715434e+007,0.000000000000000e+000
	1.584460386777254e-001,2.326419893273797e-001
	1.000000000000000e+000,0.000000000000000e+000
	4.677647266183883e-002,7.572199968306698e-002
	-1.160983935023425e-003,7.171856729187966e-004
	-1.114207462361586e-003,7.929076726018636e-004
	1.198362858493813e-003,-8.161718715346015e-004
	4.677647266183883e-005,7.572199968306697e-005
	8.415539613222747e-005,-2.326419893273797e-005
	-8.415539613222747e-005,2.326419893273797e-005
13		9.715631262525053e+007,0.000000000000000e+000
	1.593618042293209e-001,2.330003143924016e-001
	1.000000000000000e+000,0.000000000000000e+000
	4.706114294160684e-002,7.584784856898380e-002
	-1.163057413582287e-003,7.216396011563874e-004
	-1.115996270640680e-003,7.974874497253711e-004
	1.200060090217748e-003,-8.207874811646114e-004
	4.706114294160684e-005,7.584784856898381e-005
	8.406381957706791e-005,-2.330003143924016e-005
	-8.406381957706791e-005,2.330003143924016e-005
14		9.716833667334673e+007,0.000000000000000e+000
	1.602841630764923e-001,2.333570303571894e-001
	1.000000000000000e+000,0.000000000000000e+000
	4.734792009461001e-002,7.597327895607690e-002
	-1.165124951707970e-003,7.261269208296121e-004
	-1.117777031613359e-003,8.021001997856891e-004
	1.201748615305710e-003,-8.254359028214079e-004
	4.734792009461001e-005,7.597327895607691e-005
	8.397158369235077e-005,-2.333570303571894e-005
	-8.397158369235077e-005,2.333570303571894e-005
15		9.718036072144292e+007,0.000000000000000e+000
	1.612131615454577e-001,2.337120841242261e-001
	1.000000000000000e+000,0.000000000000000e+000
	4.763681949671074e-002,7.609827468915742e-002
	-1.167186299231495e-003,7.306478797665389e-004
	-1.119549479734784e-003,8.067461544556963e-004
	1.203428163580238e-003,-8.301173628681189e-004
	4.763681949671074e-005,7.609827468915742e-005
	8.387868384545423e-005,-2.337120841242261e-005
	-8.387868384545423e-005,2.337120841242261e-005
16		9.719238476953912e+007,0.000000000000000e+000
	1.621488460614265e-001,2.340654216227351e-001
	1.000000000000000e+000,0.000000000000000e+000
	4.792785656840368e-002,7.622281930664256e-002
	-1.169241201161236e-003,7.352027265966020e-004
	-1.121313344592832e-003,8.114255459032445e-004
	1.205098459986689e-003,-8.348320880655181e-004
	4.792785656840368e-005,7.622281930664255e-005
	8.378511539385736e-005,-2.340654216227351e-005
	-8.378511539385735e-005,2.340654216227351e-005
17		9.720440881763531e+007,0.000000000000000e+000
	1.630912631401913e-001,2.344169877938787e-001
	1.000000000000000e+000,0.000000000000000e+000
	4.822104677235971e-002,7.634689603576017e-002
	-1.171289397606437e-003,7.397917107133466e-004
	-1.123068350834077e-003,8.161386067491068e-004
	1.206759224520058e-003,-8.395803055284947e-004
	4.822104677235971e-005,7.634689603576017e-005
	8.369087368598087e-005,-2.344169877938787e-005
	-8.369087368598087e-005,2.344169877938787e-005
18		9.721643286573151e+007,0.000000000000000e+000
	1.640404593793975e-001,2.347667265758064e-001
	1.000000000000000e+000,0.000000000000000e+000
	4.851640561087005e-002,7.647048778770130e-002
	-1.173330623699891e-003,7.444150822356123e-004
	-1.124814218089021e-003,8.208855700233136e-004
	1.208410172151081e-003,-8.443622426808942e-004
	4.851640561087005e-005,7.647048778770130e-005
	8.359595406206026e-005,-2.347667265758064e-005
	-8.359595406206026e-005,2.347667265758064e-005
19		9.722845691382770e+007,0.000000000000000e+000
	1.649964814494713e-001,2.351145808885517e-001
	1.000000000000000e+000,0.000000000000000e+000
	4.881394862318466e-002,7.659357715272025e-002
	-1.175364609519742e-003,7.490730919670658e-004
	-1.126550660896557e-003,8.256666691197860e-004
	1.210051012751610e-003,-8.491781272086412e-004
	4.881394862318466e-005,7.659357715272025e-005
	8.350035185505288e-005,-2.351145808885517e-005
	-8.350035185505288e-005,2.351145808885517e-005
20		9.724048096192390e+007,0.000000000000000e+000
	1.659593760842198e-001,2.354604926187877e-001
	1.000000000000000e+000,0.000000000000000e+000
	4.911369138274865e-002,7.671614639518549e-002
	-1.177391080010485e-003,7.537659913541366e-004
	-1.128277388627736e-003,8.304821377493221e-004
	1.211681451019314e-003,-8.540281870112009e-004
	4.911369138274865e-005,7.671614639518550e-005
	8.340406239157803e-005,-2.354604926187877e-005
	-8.340406239157802e-005,2.354604926187877e-005
21		9.725250501002009e+007,0.000000000000000e+000
	1.669291900710708e-001,2.358044026044328e-001
	1.000000000000000e+000,0.000000000000000e+000
	4.941564949432691e-002,7.683817744857824e-002
	-1.179409754903109e-003,7.584940324422083e-004
	-1.129994105408782e-003,8.353322098907866e-004
	1.213301186401675e-003,-8.589126501512299e-004
	4.941564949432691e-005,7.683817744857824e-005
	8.330708099289293e-005,-2.358044026044328e-005
	-8.330708099289293e-005,2.358044026044328e-005
22		9.726452905811629e+007,0.000000000000000e+000
	1.679059702409564e-001,2.361462506191169e-001
	1.000000000000000e+000,0.000000000000000e+000
	4.971983859101805e-002,7.695965191044188e-002
	-1.181420348634425e-003,7.632574678300754e-004
	-1.131700510043407e-003,8.402171197405172e-004
	1.214909913019312e-003,-8.638317448024290e-004
	4.971983859101805e-005,7.695965191044188e-005
	8.320940297590436e-005,-2.361462506191169e-005
	-8.320940297590436e-005,2.361462506191169e-005
23		9.727655310621248e+007,0.000000000000000e+000
	1.688897634578314e-001,2.364859753565074e-001
	1.000000000000000e+000,0.000000000000000e+000
	5.002627433115474e-002,7.708055103728241e-002
	-1.183422570265580e-003,7.680565506226225e-004
	-1.133396295934425e-003,8.451371016599048e-004
	1.216507319588642e-003,-8.687856991955556e-004
	5.002627433115474e-005,7.708055103728241e-005
	8.311102365421686e-005,-2.364859753565074e-005
	-8.311102365421686e-005,2.364859753565074e-005
24		9.728857715430868e+007,0.000000000000000e+000
	1.698806166078171e-001,2.368235144144996e-001
	1.000000000000000e+000,0.000000000000000e+000
	5.033497239508741e-002,7.720085573942050e-002
	-1.185416123399778e-003,7.728915343816786e-004
	-1.135081151004691e-003,8.500923901210993e-004
	1.218093089343909e-003,-8.737747415625492e-004
	5.033497239508741e-005,7.720085573942049e-005
	8.301193833921829e-005,-2.368235144144996e-005
	-8.301193833921829e-005,2.368235144144996e-005
25		9.730060120240487e+007,0.000000000000000e+000
	1.708785765879437e-001,2.371588042792669e-001
	1.000000000000000e+000,0.000000000000000e+000
	5.064594848184311e-002,7.732054657579399e-002
	-1.187400706099178e-003,7.777626730749161e-004
	-1.136754757617335e-003,8.550832196507101e-004
	1.219666899958540e-003,-8.787991000786369e-004
	5.064594848184311e-005,7.732054657579398e-005
	8.291214234120563e-005,-2.371588042792669e-005
	-8.291214234120563e-005,2.371588042792669e-005
26		9.731262525050107e+007,0.000000000000000e+000
	1.718836902945128e-001,2.374917803091865e-001
	1.000000000000000e+000,0.000000000000000e+000
	5.095921830566571e-002,7.743960374871564e-002
	-1.189376010801044e-003,7.826702210228893e-004
	-1.138416792495379e-003,8.601098247716047e-004
	1.221228423465927e-003,-8.838590028025235e-004
	5.095921830566571e-005,7.743960374871564e-005
	8.281163097054872e-005,-2.374917803091865e-005
	-8.281163097054872e-005,2.374917803091865e-005
27		9.732464929859726e+007,0.000000000000000e+000
	1.728960046110393e-001,2.378223767186314e-001
	1.000000000000000e+000,0.000000000000000e+000
	5.127479759242517e-002,7.755800709858296e-002
	-1.191341724233103e-003,7.876144328440236e-004
	-1.140066926640678e-003,8.651724399426066e-004
	1.222777326179574e-003,-8.889546776144697e-004
	5.127479759242517e-005,7.755800709858296e-005
	8.271039953889608e-005,-2.378223767186314e-005
	-8.271039953889608e-005,2.378223767186314e-005
28		9.733667334669346e+007,0.000000000000000e+000
	1.739155663957925e-001,2.381505265616432e-001
	1.000000000000000e+000,0.000000000000000e+000
	5.159270207590158e-002,7.767573609854485e-002
	-1.193297527328173e-003,7.925955633976388e-004
	-1.141704825252272e-003,8.702712994961838e-004
	1.224313268612693e-003,-8.940863521523481e-004
	5.159270207590158e-005,7.767573609854485e-005
	8.260844336042076e-005,-2.381505265616433e-005
	-8.260844336042076e-005,2.381505265616433e-005
29		9.734869739478965e+007,0.000000000000000e+000
	1.749424224688890e-001,2.384761617154780e-001
	1.000000000000000e+000,0.000000000000000e+000
	5.191294749392916e-002,7.779276984912187e-002
	-1.195243095138024e-003,7.976138677247785e-004
	-1.143330147644095e-003,8.754066375739005e-004
	1.225835905397206e-003,-8.992542537454483e-004
	5.191294749392916e-005,7.779276984912187e-005
	8.250575775311111e-005,-2.384761617154780e-005
	-8.250575775311111e-005,2.384761617154780e-005
30		9.736072144288585e+007,0.000000000000000e+000
	1.759766195989655e-001,2.387992128640404e-001
	1.000000000000000e+000,0.000000000000000e+000
	5.223554958440918e-002,7.790908707278541e-002
	-1.197178096746545e-003,8.026696009869828e-004
	-1.144942547162136e-003,8.805786880597683e-004
	1.227344885202239e-003,-9.044586093461722e-004
	5.223554958440918e-005,7.790908707278541e-005
	8.240233804010344e-005,-2.387992128640404e-005
	-8.240233804010345e-005,2.387992128640404e-005
31		9.737274549098204e+007,0.000000000000000e+000
	1.770182044893967e-001,2.391196094812028e-001
	1.000000000000000e+000,0.000000000000000e+000
	5.256052408118021e-002,7.802466610849458e-002
	-1.199102195182196e-003,8.077630184028209e-004
	-1.146541671101016e-003,8.857876845113157e-004
	1.228839850652077e-003,-9.096996454594359e-004
	5.256052408118021e-005,7.802466610849459e-005
	8.229817955106034e-005,-2.391196094812028e-005
	-8.229817955106034e-005,2.391196094812028e-005
32		9.738476953907824e+007,0.000000000000000e+000
	1.780672237640461e-001,2.394372798140159e-001
	1.000000000000000e+000,0.000000000000000e+000
	5.288788670974277e-002,7.813948490619195e-002
	-1.201015047329769e-003,8.128943751821402e-004
	-1.148127160620026e-003,8.910338600883321e-004
	1.230320438243622e-003,-9.149775880697336e-004
	5.288788670974277e-005,7.813948490619195e-005
	8.219327762359540e-005,-2.394372798140160e-005
	-8.219327762359540e-005,2.394372798140160e-005
33		9.739679358717443e+007,0.000000000000000e+000
	1.791237239525660e-001,2.397521508658207e-001
	1.000000000000000e+000,0.000000000000000e+000
	5.321765318284210e-002,7.825352102126205e-002
	-1.202916303841513e-003,8.180639264580853e-004
	-1.149698650658672e-003,8.963174474793475e-004
	1.231786278263415e-003,-9.202926625659297e-004
	5.321765318284210e-005,7.825352102126206e-005
	8.208762760474341e-005,-2.397521508658207e-005
	-8.208762760474341e-005,2.397521508658207e-005
34		9.740881763527063e+007,0.000000000000000e+000
	1.801877514751931e-001,2.400641483792562e-001
	1.000000000000000e+000,0.000000000000000e+000
	5.354983919589332e-002,7.836675160895039e-002
	-1.204805609047587e-003,8.232719272166438e-004
	-1.151255769851694e-003,9.016386788255942e-004
	1.233236994704174e-003,-9.256450936635197e-004
	5.354983919589332e-005,7.836675160895039e-005
	8.198122485248070e-005,-2.400641483792563e-005
	-8.198122485248070e-005,2.400641483792563e-005
35		9.742084168336682e+007,0.000000000000000e+000
	1.812593526270721e-001,2.403731968191818e-001
	1.000000000000000e+000,0.000000000000000e+000
	5.388446042225847e-002,7.847915341874830e-002
	-1.206682600865927e-003,8.285186322238619e-004
	-1.152798140443668e-003,9.069977856426101e-004
	1.234672205180961e-003,-9.310351053245283e-004
	5.388446042225847e-005,7.847915341874829e-005
	8.187406473729279e-005,-2.403731968191818e-005
	-8.187406473729279e-005,2.403731968191818e-005
36		9.743286573146302e+007,0.000000000000000e+000
	1.823385735620601e-001,2.406792193555083e-001
	1.000000000000000e+000,0.000000000000000e+000
	5.422153250836036e-002,7.859070278874254e-002
	-1.208546910711504e-003,8.338042959504980e-004
	-1.154325378203144e-003,9.123949987392404e-004
	1.236091520846938e-003,-9.364629206747913e-004
	5.422153250836036e-005,7.859070278874254e-005
	8.176614264379400e-005,-2.406792193555083e-005
	-8.176614264379400e-005,2.406792193555083e-005
37		9.744488977955921e+007,0.000000000000000e+000
	1.834254602760201e-001,2.409821378459507e-001
	1.000000000000000e+000,0.000000000000000e+000
	5.456107106863625e-002,7.870137563993260e-002
	-1.210398163405025e-003,8.391291724941557e-004
	-1.155837092336388e-003,9.178305481340880e-004
	1.237494546308786e-003,-9.419287619186832e-004
	5.456107106863625e-005,7.870137563993260e-005
	8.165745397239800e-005,-2.409821378459507e-005
	-8.165745397239800e-005,2.409821378459507e-005
38		9.745691382765541e+007,0.000000000000000e+000
	1.845200585895903e-001,2.412818728187083e-001
	1.000000000000000e+000,0.000000000000000e+000
	5.490309168032657e-002,7.881114747051818e-002
	-1.212235977081104e-003,8.444935154988234e-004
	-1.157332885400777e-003,9.233046629693414e-004
	1.238880879541818e-003,-9.474328502512122e-004
	5.490309168032657e-005,7.881114747051818e-005
	8.154799414104097e-005,-2.412818728187084e-005
	-8.154799414104098e-005,2.412818728187084e-005
39		9.746893787575160e+007,0.000000000000000e+000
	1.856224141304155e-001,2.415783434550796e-001
	1.000000000000000e+000,0.000000000000000e+000
	5.524760987809457e-002,7.891999335015830e-002
	-1.214059963095941e-003,8.498975780717535e-004
	-1.158812353217846e-003,9.288175714219117e-004
	1.240250111804805e-003,-9.529754057674197e-004
	5.524760987809457e-005,7.891999335015830e-005
	8.143775858695845e-005,-2.415783434550796e-005
	-8.143775858695845e-005,2.415783434550796e-005
40		9.748096192384780e+007,0.000000000000000e+000
	1.867325723148126e-001,2.418714675720120e-001
	1.000000000000000e+000,0.000000000000000e+000
	5.559464114846784e-002,7.902788791420275e-002
	-1.215869725934500e-003,8.553416126975381e-004
	-1.160275084786032e-003,9.343695006117409e-004
	1.241601827554551e-003,-9.585566473689419e-004
	5.559464114846784e-005,7.902788791420275e-005
	8.132674276851874e-005,-2.418714675720120e-005
	-8.132674276851874e-005,2.418714675720120e-005
41		9.749298597194399e+007,0.000000000000000e+000
	1.878505783288912e-001,2.421611616046082e-001
	1.000000000000000e+000,0.000000000000000e+000
	5.594420092410808e-002,7.913480535790138e-002
	-1.217664863117288e-003,8.608258711494817e-004
	-1.161720662193181e-003,9.399606765073836e-004
	1.242935604360292e-003,-9.641767926678444e-004
	5.594420092410809e-005,7.913480535790139e-005
	8.121494216711089e-005,-2.421611616046082e-005
	-8.121494216711089e-005,2.421611616046082e-005
42		9.750501002004018e+007,0.000000000000000e+000
	1.889764771090792e-001,2.424473405885816e-001
	1.000000000000000e+000,0.000000000000000e+000
	5.629630457789378e-002,7.924071943059033e-002
	-1.219444965106708e-003,8.663506043980252e-004
	-1.163148660528814e-003,9.455913238286153e-004
	1.244251012817906e-003,-9.698360578874734e-004
	5.629630457789378e-005,7.924071943059033e-005
	8.110235228909209e-005,-2.424473405885816e-005
	-8.110235228909209e-005,2.424473405885816e-005
43		9.751703406813638e+007,0.000000000000000e+000
	1.901103133220855e-001,2.427299181426861e-001
	1.000000000000000e+000,0.000000000000000e+000
	5.665096741682449e-002,7.934560342986104e-002
	-1.221209615213085e-003,8.719160625163625e-004
	-1.164558647796260e-003,9.512616659462236e-004
	1.245547616464051e-003,-9.755346577604921e-004
	5.665096741682449e-005,7.934560342986103e-005
	8.098896866779145e-005,-2.427299181426861e-005
	-8.098896866779145e-005,2.427299181426861e-005
44		9.752905811623257e+007,0.000000000000000e+000
	1.912521313442281e-001,2.430088064511098e-001
	1.000000000000000e+000,0.000000000000000e+000
	5.700820467572594e-002,7.944943019571048e-002
	-1.222958389500331e-003,8.775224945829154e-004
	-1.165950184824606e-003,9.569719247786259e-004
	1.246824971690183e-003,-9.812728054237369e-004
	5.700820467572594e-005,7.944943019571048e-005
	8.087478686557718e-005,-2.430088064511098e-005
	-8.087478686557718e-005,2.430088064511098e-005
45		9.754108216432877e+007,0.000000000000000e+000
	1.924019752401742e-001,2.432839162458599e-001
	1.000000000000000e+000,0.000000000000000e+000
	5.736803151076838e-002,7.955217210467976e-002
	-1.224690856691376e-003,8.831701485808677e-004
	-1.167322825180608e-003,9.627223206855476e-004
	1.248082627656591e-003,-9.870507123101336e-004
	5.736803151076838e-005,7.955217210467975e-005
	8.075980247598259e-005,-2.432839162458599e-005
	-8.075980247598259e-005,2.432839162458599e-005
46		9.755310621242496e+007,0.000000000000000e+000
	1.935598887410367e-001,2.435551567891376e-001
	1.000000000000000e+000,0.000000000000000e+000
	5.773046299278234e-002,7.965380106398104e-002
	-1.226406578073333e-003,8.888592712945011e-004
	-1.168676115080550e-003,9.685130723584820e-004
	1.249320126206447e-003,-9.928685880373957e-004
	5.773046299278234e-005,7.965380106398104e-005
	8.064401112589633e-005,-2.435551567891377e-005
	-8.064401112589634e-005,2.435551567891377e-005
47		9.756513026052116e+007,0.000000000000000e+000
	1.947259152218540e-001,2.438224358557223e-001
	1.000000000000000e+000,0.000000000000000e+000
	5.809551410037861e-002,7.975428850561862e-002
	-1.228105107402525e-003,8.945901082024451e-004
	-1.170009593302147e-003,9.743443967080640e-004
	1.250537001779961e-003,-9.987266402936362e-004
	5.809551410037861e-005,7.975428850561863e-005
	8.052740847781461e-005,-2.438224358557223e-005
	-8.052740847781461e-005,2.438224358557223e-005
48		9.757715430861735e+007,0.000000000000000e+000
	1.959000976783789e-001,2.440856597153616e-001
	1.000000000000000e+000,0.000000000000000e+000
	5.846319971285025e-002,7.985360538050307e-002
	-1.229785990809331e-003,9.003629033674873e-004
	-1.171322791096481e-003,9.802165087479903e-004
	1.251732781328643e-003,-1.004625074719526e-003
	5.846319971285025e-005,7.985360538050307e-005
	8.040999023216212e-005,-2.440856597153617e-005
	-8.040999023216212e-005,2.440856597153617e-005
49		9.758917835671355e+007,0.000000000000000e+000
	1.970824787032365e-001,2.443447331151964e-001
	1.000000000000000e+000,0.000000000000000e+000
	5.883353460287396e-002,7.995172215256696e-002
	-1.231448766702985e-003,9.061778993232153e-004
	-1.172615232100111e-003,9.861296214757822e-004
	1.252906984229787e-003,-1.010564094787302e-003
	5.883353460287396e-005,7.995172215256696e-005
	8.029175212967635e-005,-2.443447331151964e-005
	-8.029175212967635e-005,2.443447331151964e-005
50		9.760120240480974e+007,0.000000000000000e+000
	1.982731004613843e-001,2.445995592622199e-001
	1.000000000000000e+000,0.000000000000000e+000
	5.920653342899107e-002,8.004860879288256e-002
	-1.233092965676344e-003,9.120353369571806e-004
	-1.173886432247353e-003,9.920839457500635e-004
	1.254059122201214e-003,-1.016543901676286e-003
	5.920653342899107e-005,8.004860879288256e-005
	8.017268995386159e-005,-2.445995592622199e-005
	-8.017268995386157e-005,2.445995592622199e-005
51		9.761322645290594e+007,0.000000000000000e+000
	1.994720046648805e-001,2.448500398057884e-001
	1.000000000000000e+000,0.000000000000000e+000
	5.958221072786851e-002,8.014423477378579e-002
	-1.234718110410685e-003,9.179354553905854e-004
	-1.175135899682817e-003,9.980796901643712e-004
	1.255188699216329e-003,-1.022564694144950e-003
	5.958221072786851e-005,8.014423477378579e-005
	8.005279953351195e-005,-2.448500398057884e-005
	-8.005279953351196e-005,2.448500398057884e-005
52		9.762525050100213e+007,0.000000000000000e+000
	2.006792325469506e-001,2.450960748201962e-001
	1.000000000000000e+000,0.000000000000000e+000
	5.996058090633711e-002,8.023856906301127e-002
	-1.236323715580604e-003,9.238784918544521e-004
	-1.176363134674268e-003,1.004117060917464e-003
	1.256295211419573e-003,-1.028626668399483e-003
	5.996058090633711e-005,8.023856906301127e-005
	7.993207674530494e-005,-2.450960748201962e-005
	-7.993207674530494e-005,2.450960748201962e-005
53		9.763727454909833e+007,0.000000000000000e+000
	2.018948248353321e-001,2.453375627873282e-001
	1.000000000000000e+000,0.000000000000000e+000
	6.034165823320088e-002,8.033158011784176e-002
	-1.237909287759073e-003,9.298646815621723e-004
	-1.177567629525871e-003,1.010196261680014e-003
	1.257378147042338e-003,-1.034730017958747e-003
	6.034165823320087e-005,8.033158011784177e-005
	7.981051751646680e-005,-2.453375627873283e-005
	-7.981051751646680e-005,2.453375627873283e-005
54		9.764929859719452e+007,0.000000000000000e+000
	2.031188217248792e-001,2.455744005794022e-001
	1.000000000000000e+000,0.000000000000000e+000
	6.072545683081068e-002,8.042323587927605e-002
	-1.239474325322705e-003,9.358942575783315e-004
	-1.178748868491894e-003,1.016317493457608e-003
	1.258436986319406e-003,-1.040874933515548e-003
	6.072545683081068e-005,8.042323587927606e-005
	7.968811782751208e-005,-2.455744005794022e-005
	-7.968811782751208e-005,2.455744005794022e-005
55		9.766132264529072e+007,0.000000000000000e+000
	2.043512628494313e-001,2.458064834418210e-001
	1.000000000000000e+000,0.000000000000000e+000
	6.111199066640378e-002,8.051350376622143e-002
	-1.241018318357351e-003,9.419674506838298e-004
	-1.179906327690947e-003,1.022480954450051e-003
	1.259471201406003e-003,-1.047061602794233e-003
	6.111199066640379e-005,8.051350376622144e-005
	7.956487371505687e-005,-2.458064834418210e-005
	-7.956487371505687e-005,2.458064834418210e-005
56		9.767334669338691e+007,0.000000000000000e+000
	2.055921872529115e-001,2.460337049761439e-001
	1.000000000000000e+000,0.000000000000000e+000
	6.150127354319836e-002,8.060235066971307e-002
	-1.242540748564023e-003,9.480844892371238e-004
	-1.181039475020825e-003,1.028686839906837e-003
	1.260480256295534e-003,-1.053290210404452e-003
	6.150127354319835e-005,8.060235066971307e-005
	7.944078127470885e-005,-2.460337049761439e-005
	-7.944078127470885e-005,2.460337049761439e-005
57		9.768537074148311e+007,0.000000000000000e+000
	2.068416333596505e-001,2.462559571231961e-001
	1.000000000000000e+000,0.000000000000000e+000
	6.189331909124113e-002,8.068974294716712e-002
	-1.244041089165290e-003,9.542455990315647e-004
	-1.182147770074049e-003,1.034935341978732e-003
	1.261463606738084e-003,-1.059560937691052e-003
	6.189331909124113e-005,8.068974294716713e-005
	7.931583666403496e-005,-2.462559571231961e-005
	-7.931583666403495e-005,2.462559571231961e-005
58		9.769739478957930e+007,0.000000000000000e+000
	2.080996389439299e-001,2.464731301463354e-001
	1.000000000000000e+000,0.000000000000000e+000
	6.228814075800588e-002,8.077564641667188e-002
	-1.245518804812181e-003,9.604510031487885e-004
	-1.183230664054175e-003,1.041226649565460e-003
	1.262420700159782e-003,-1.065873962580094e-003
	6.228814075800588e-005,8.077564641667188e-005
	7.919003610560702e-005,-2.464731301463354e-005
	-7.919003610560702e-005,2.464731301463354e-005
59		9.770941883767550e+007,0.000000000000000e+000
	2.093662410987201e-001,2.466851126148891e-001
	1.000000000000000e+000,0.000000000000000e+000
	6.268575179873512e-002,8.086002635132267e-002
	-1.246973351491705e-003,9.667009218080388e-004
	-1.184287599692970e-003,1.047560948159362e-003
	1.263350975583098e-003,-1.072229459420851e-003
	6.268575179873512e-005,8.086002635132266e-005
	7.906337589012800e-005,-2.466851126148891e-005
	-7.906337589012800e-005,2.466851126148891e-005
60		9.772144288577169e+007,0.000000000000000e+000
	2.106414762035909e-001,2.468917913877802e-001
	1.000000000000000e+000,0.000000000000000e+000
	6.308616526651760e-002,8.094284747360457e-002
	-1.248404176435049e-003,9.729955722113053e-004
	-1.185318011168531e-003,1.053938419684910e-003
	1.264253863548172e-003,-1.078627598823687e-003
	6.308616526651761e-005,8.094284747360457e-005
	7.893585237964091e-005,-2.468917913877802e-005
	-7.893585237964091e-005,2.468917913877802e-005
61		9.773346693386789e+007,0.000000000000000e+000
	2.119253798918176e-001,2.470930515973666e-001
	1.000000000000000e+000,0.000000000000000e+000
	6.348939400210819e-002,8.102407394983185e-002
	-1.249810718026570e-003,9.793351683843755e-004
	-1.186321324024462e-003,1.060359242334207e-003