Title: * C:/Users/merch/OneDrive/Documents/LTSpice/RF/impedanceTransformer2/imp_transfx/bw_control.asc
Date: Sun Aug 13 15:09:26 2017
Plotname: AC Analysis
Flags: complex forward linear
No. Variables: 10
No. Points:          100
Offset:   0.0000000000000000e+000
Command: Linear Technology Corporation LTspice XVII
Variables:
	0	frequency	frequency
	1	V(c)	voltage
	2	V(n001)	voltage
	3	V(out)	voltage
	4	I(C2)	device_current
	5	I(C1)	device_current
	6	I(L)	device_current
	7	I(Rl)	device_current
	8	I(R1)	device_current
	9	I(Vcc)	device_current
Values:
0		1.010000000000000e+007,0.000000000000000e+000
	4.693993547598296e-002,1.458384021120185e-001
	9.999904694946599e-001,1.458369437425811e-006
	1.285359750900776e-002,4.670690959444194e-002
	-7.447124970401460e-004,2.049425830139114e-004
	-7.318588995311383e-004,2.516494926083533e-004
	8.271639529330060e-004,-2.662331869826115e-004
	1.285359750900777e-005,4.670690959444194e-005
	-9.530505340186770e-005,1.458369437425811e-005
	-9.530505340138440e-005,1.458369437425811e-005
1		1.011212121212121e+007,0.000000000000000e+000
	4.874818712950813e-002,1.483238668240521e-001
	9.999904875769956e-001,1.483223836002161e-006
	1.339364239460596e-002,4.751598849821777e-002
	-7.585219809812006e-004,2.138095509070881e-004
	-7.451283385865946e-004,2.613255394053059e-004
	8.402525686313433e-004,-2.761577777653275e-004
	1.339364239460596e-005,4.751598849821777e-005
	-9.512423004474875e-005,1.483223836002161e-005
	-9.512423004398585e-005,1.483223836002160e-005
2		1.012424242424243e+007,0.000000000000000e+000
	5.065642898713257e-002,1.508788766608289e-001
	9.999905066592233e-001,1.508773678871500e-006
	1.396441485821093e-002,4.834833780698489e-002
	-7.727343512744082e-004,2.231882944862560e-004
	-7.587699364161972e-004,2.715366322932409e-004
	8.537033441834063e-004,-2.866243690819559e-004
	1.396441485821093e-005,4.834833780698489e-005
	-9.493340776720909e-005,1.508773678871500e-005
	-9.493340776711712e-005,1.508773678871500e-005
3		1.013636363636364e+007,0.000000000000000e+000
	5.267178162659699e-002,1.535053836075453e-001
	9.999905268125482e-001,1.535038485690596e-006
	1.456814150245274e-002,4.920466588549648e-002
	-7.873622788663318e-004,2.331162072904021e-004
	-7.727941373638792e-004,2.823208731758986e-004
	8.675260118824744e-004,-2.976712580328046e-004
	1.456814150245274e-005,4.920466588549648e-005
	-9.473187451859513e-005,1.535038485690596e-005
	-9.473187451813914e-005,1.535038485690596e-005
4		1.014848484848485e+007,0.000000000000000e+000
	5.480197203000865e-002,1.562052913452247e-001
	9.999905481142393e-001,1.562037293079316e-006
	1.520724129815854e-002,5.008567358525934e-002
	-8.024183685531479e-004,2.436339351988620e-004
	-7.872111272549895e-004,2.937196087841214e-004
	8.817299848634127e-004,-3.093399817149146e-004
	1.520724129815854e-005,5.008567358525934e-005
	-9.451885760842306e-005,1.562037293079316e-005
	-9.451885760736190e-005,1.562037293079316e-005
5		1.016060606060606e+007,0.000000000000000e+000
	5.705539155696622e-002,1.589804284043007e-001
	9.999905706482092e-001,1.589788386159145e-006
	1.588434425951330e-002,5.099204649743460e-002
	-8.179150339979418e-004,2.547856943868386e-004
	-8.020306897384284e-004,3.057777408842731e-004
	8.963242076475528e-004,-3.216756247458646e-004
	1.588434425951330e-005,5.099204649743460e-005
	-9.429351790912429e-005,1.589788386159145e-005
	-9.429351790823937e-005,1.589788386159145e-005
6		1.017272727272728e+007,0.000000000000000e+000
	5.944115966739791e-002,1.618325154534215e-001
	9.999905945056516e-001,1.618308971444501e-006
	1.660231201238564e-002,5.192444542483355e-002
	-8.338643432586678e-004,2.666196218277245e-004
	-8.172620312462825e-004,3.185440672525581e-004
	9.113169747301078e-004,-3.347271569670031e-004
	1.660231201238564e-005,5.192444542483355e-005
	-9.405494348382537e-005,1.618308971444500e-005
	-9.405494348357912e-005,1.618308971444500e-005
7		1.018484848484849e+007,0.000000000000000e+000
	6.196919389069243e-002,1.647631255687613e-001
	9.999906197857411e-001,1.647614779539818e-006
	1.736426042761954e-002,5.288349471423531e-002
	-8.502778288197551e-004,2.791881613580807e-004
	-8.329135683921355e-004,3.320716560723159e-004
	9.267157109816403e-004,-3.485478038677141e-004
	1.736426042761954e-005,5.288349471423530e-005
	-9.380214258950487e-005,1.647614779539818e-005
	-9.380214258891684e-005,1.647614779539818e-005
8		1.019696969696970e+007,0.000000000000000e+000
	6.465028654413942e-002,1.677736361047928e-001
	9.999906465963996e-001,1.677719583852090e-006
	1.817358449599930e-002,5.386976801939692e-002
	-8.671662549248199e-004,2.925484884264018e-004
	-8.489926704288206e-004,3.464182564457987e-004
	9.425267064340465e-004,-3.631954522843196e-004
	1.817358449599930e-005,5.386976801939692e-005
	-9.353403600522603e-005,1.677719583852090e-005
	-9.353403600420585e-005,1.677719583852090e-005
9		1.020909090909092e+007,0.000000000000000e+000
	6.749618869405907e-002,1.708651705200273e-001
	9.999906750551364e-001,1.708634618854084e-006
	1.903398562197074e-002,5.488377098043700e-002
	-8.845393335772656e-004,3.067629766799089e-004
	-8.655053479552946e-004,3.616467476603459e-004
	9.587547965914026e-004,-3.787330938488868e-004
	1.903398562197074e-005,5.488377098043700e-005
	-9.324944863610774e-005,1.708634618854085e-005
	-9.324944863609019e-005,1.708634618854084e-005
10		1.022121212121213e+007,0.000000000000000e+000
	7.051970181992845e-002,1.740385281927991e-001
	9.999907052899654e-001,1.740367878249208e-006
	1.994950150681906e-002,5.592592020415869e-002
	-9.024053788652520e-004,3.218997094677271e-004
	-8.824558773584332e-004,3.778256296718858e-004
	9.754029777054367e-004,-3.952293084543779e-004
	1.994950150681906e-005,5.592592020415869e-005
	-9.294710034700369e-005,1.740367878249208e-005
	-9.294710034635223e-005,1.740367878249208e-005
11		1.023333333333334e+007,0.000000000000000e+000
	7.373477757549493e-002,1.772940998838787e-001
	9.999907374404015e-001,1.772923269606091e-006
	2.092453877587570e-002,5.699651780941066e-002
	-9.207708872271769e-004,3.380330391043894e-004
	-8.998463484513015e-004,3.950295569138002e-004
	9.924719444377921e-004,-4.127587896098610e-004
	2.092453877587571e-005,5.699651780941066e-005
	-9.262559598649066e-005,1.772923269606091e-005
	-9.262559598544051e-005,1.772923269606091e-005
12		1.024545454545455e+007,0.000000000000000e+000
	7.715662592792665e-002,1.806317660543225e-001
	9.999907716585428e-001,1.806299597547249e-006
	2.196390847435181e-002,5.809572065835891e-002
	-9.396400288446197e-004,3.552441962764613e-004
	-9.176761203702679e-004,4.133399169348202e-004
	1.009959534943329e-003,-4.314029129102927e-004
	2.196390847435181e-005,5.809572065835891e-005
	-9.228341457306163e-005,1.806299597547249e-005
	-9.228341457223621e-005,1.806299597547249e-005
13		1.025757575757577e+007,0.000000000000000e+000
	8.080183177890862e-002,1.840507747175395e-001
	9.999908081102368e-001,1.840489342281972e-006
	2.307286450715835e-002,5.922350322486603e-002
	-9.590140324675368e-004,3.736219511968441e-004
	-9.359411679603787e-004,4.328454544217101e-004
	1.027860065593511e-003,-4.512503478445299e-004
	2.307286450715835e-005,5.922350322486603e-005
	-9.191889763313282e-005,1.840489342281972e-005
	-9.191889763227046e-005,1.840489342281972e-005
14		1.026969696969698e+007,0.000000000000000e+000
	8.468847990659564e-002,1.875495948820672e-001
	9.999908469763293e-001,1.875477194048732e-006
	2.425714502224557e-002,6.037961285094701e-002
	-9.788904425697977e-004,3.932633268935129e-004
	-9.546332975475520e-004,4.536429397444599e-004
	1.046163534254526e-003,-4.723977116849473e-004
	2.425714502224557e-005,6.037961285094701e-005
	-9.153023670697337e-005,1.875477194048732e-005
	-9.153023670660510e-005,1.875477194048732e-005
15		1.028181818181819e+007,0.000000000000000e+000
	8.883628768352996e-002,1.911257409140911e-001
	9.999908884539923e-001,1.911238296757943e-006
	2.552301662494246e-002,6.156351590733026e-002
	-9.992622237285404e-004,4.142743632006204e-004
	-9.737392071035977e-004,4.758378791079506e-004
	1.064854667180644e-003,-4.949502620755300e-004
	2.552301662494246e-005,6.156351590733026e-005
	-9.111546007704624e-005,1.911238296757943e-005
	-9.111546007689597e-005,1.911238296757943e-005
16		1.029393939393941e+007,0.000000000000000e+000
	9.326674448212208e-002,1.947755623050294e-001
	9.999909327581174e-001,1.947736145688837e-006
	2.687732114971345e-002,6.277433310040902e-002
	-1.020116682445171e-003,4.367709273852956e-004
	-9.932393612954572e-004,4.995452604857047e-004
	1.083911780123057e-003,-5.190226219425931e-004
	2.687732114971346e-005,6.277433310040902e-005
	-9.067241882759953e-005,1.947736145688837e-005
	-9.067241882654287e-005,1.947736145688837e-005
17		1.030606060606062e+007,0.000000000000000e+000
	9.800325592286970e-002,1.984939923609652e-001
	9.999909801227581e-001,1.984920074408908e-006
	2.832752448895736e-002,6.401076185192522e-002
	-1.041434171216474e-003,4.608795636117614e-004
	-1.013106646727517e-003,5.248903254636867e-004
	1.103305419147506e-003,-5.447395262077758e-004
	2.832752448895736e-005,6.401076185192522e-005
	-9.019877241998884e-005,1.984920074408908e-005
	-9.019877241889240e-005,1.984920074408908e-005
18		1.031818181818183e+007,0.000000000000000e+000
	1.030712900820881e-001,2.022742482338804e-001
	9.999910308025929e-001,2.022722255116253e-006
	2.988176666416056e-002,6.527098331761448e-002
	-1.063186533481043e-003,4.867383682480025e-004
	-1.033304766816883e-003,5.520093515656168e-004
	1.122996740888933e-003,-5.722365741167795e-004
	2.988176666416056e-005,6.527098331761448e-005
	-8.969197407205048e-005,2.022722255116253e-005
	-8.969197407115992e-005,2.022722255116253e-005
19		1.033030303030304e+007,0.000000000000000e+000
	1.084985213667171e-001,2.061074734954866e-001
	9.999910850743630e-001,2.061054124413622e-006
	3.154891189471607e-002,6.655255120749580e-002
	-1.085335241112679e-003,5.144978708830890e-004
	-1.053786329217963e-003,5.810504220905849e-004
	1.142935585588728e-003,-6.016609633347211e-004
	3.154891189471607e-005,6.655255120749581e-005
	-8.914925637076459e-005,2.061054124413622e-005
	-8.914925637037996e-005,2.061054124413622e-005
20		1.034242424242426e+007,0.000000000000000e+000
	1.143149658708642e-001,2.099823131346638e-001
	9.999911432382264e-001,2.099802133325305e-006
	3.333859683805923e-002,6.785225912893834e-002
	-1.107829168488829e-003,5.443218912358910e-004
	-1.074490571650770e-003,6.121741503648295e-004
	1.163058189387507e-003,-6.331721716980826e-004
	3.333859683805923e-005,6.785225912893835e-005
	-8.856761773673622e-005,2.099802133325305e-005
	-8.856761773645694e-005,2.099802133325305e-005
21		1.035454545454547e+007,0.000000000000000e+000
	1.205530995101652e-001,2.138844094857461e-001
	9.999912056189390e-001,2.138822706630395e-006
	3.526127439595773e-002,6.916598270700508e-002
	-1.130601939032531e-003,5.763883291257034e-004
	-1.095340664636573e-003,6.455543118327085e-004
	1.183284475247451e-003,-6.669425388990125e-004
	3.526127439595773e-005,6.916598270700508e-005
	-8.794381061087738e-005,2.138822706630395e-005
	-8.794381061050238e-005,2.138822706630395e-005
22		1.036666666666668e+007,0.000000000000000e+000
	1.272479469104091e-001,2.177958062523103e-001
	9.999912725667435e-001,2.177936283160272e-006
	3.732824944928064e-002,7.048849226955330e-002
	-1.153568771910014e-003,6.108898273790556e-004
	-1.116240522460733e-003,6.813783196486088e-004
	1.203514855026366e-003,-7.031576824802116e-004
	3.732824944928064e-005,7.048849226955329e-005
	-8.727433256563344e-005,2.177936283160272e-005
	-8.727433256527917e-005,2.177936283160272e-005
23		1.037878787878790e+007,0.000000000000000e+000
	1.344371246942610e-001,2.216942466227818e-001
	9.999913444578025e-001,2.216920297024847e-006
	3.955170152851722e-002,7.181323145968172e-002
	-1.176622748959638e-003,6.480342247882645e-004
	-1.137071047431121e-003,7.198474562479460e-004
	1.223626469407475e-003,-7.420166592181945e-004
	3.955170152851722e-005,7.181323145968172e-005
	-8.655542197635416e-005,2.216920297024847e-005
	-8.655542197533173e-005,2.216920297024848e-005
24		1.039090909090911e+007,0.000000000000000e+000
	1.421608172160684e-001,2.255523507077750e-001
	9.999914216939553e-001,2.255500952068229e-006
	4.194468766830334e-002,7.313205682418200e-002
	-1.199630416068357e-003,6.880446866188195e-004
	-1.157685728400053e-003,7.611767434430013e-004
	1.243468788847842e-003,-7.837317529636836e-004
	4.194468766830334e-005,7.313205682418200e-005
	-8.578306044778869e-005,2.255500952068229e-005
	-8.578306044726425e-005,2.255500952068229e-005
25		1.040303030303032e+007,0.000000000000000e+000
	1.504616556617829e-001,2.293366575137009e-001
	9.999915047015097e-001,2.293343641700592e-006
	4.452111643891402e-002,7.443493333049824e-002
	-1.222426630874768e-003,7.311593620908890e-004
	-1.177905514435855e-003,8.055942954213871e-004
	1.262858499339827e-003,-8.285277318383930e-004
	4.452111643891402e-005,7.443493333049824e-005
	-8.495298490397268e-005,2.293343641700592e-005
	-8.495298490340808e-005,2.293343641700592e-005
26		1.041515151515153e+007,0.000000000000000e+000
	1.593844624706129e-001,2.330065179217010e-001
	9.999915939286855e-001,2.330041878798222e-006
	4.729568129826670e-002,7.570958104671126e-002
	-1.244808572542028e-003,7.776303700316870e-004
	-1.197512891243762e-003,8.533399510783984e-004
	1.281573604389569e-003,-8.766403698663806e-004
	4.729568129826670e-005,7.570958104671126e-005
	-8.406071314580726e-005,2.330041878798222e-005
	-8.406071314470687e-005,2.330041878798222e-005
27		1.042727272727275e+007,0.000000000000000e+000
	1.689758119871352e-001,2.365128284154599e-001
	9.999916898412216e-001,2.365104633108268e-006
	5.028373787264113e-002,7.694106911309258e-002
	-1.266528843330959e-003,8.277218538851349e-004
	-1.216245105458317e-003,9.046629229982274e-004
	1.299346693243726e-003,-9.283139693293100e-004
	5.028373787264113e-005,7.694106911309258e-005
	-8.310158778540865e-005,2.365104633108268e-005
	-8.310158778446208e-005,2.365104633108268e-005
28		1.043939393939396e+007,0.000000000000000e+000
	1.792833449574705e-001,2.397966016505763e-001
	9.999917929155204e-001,2.397942037085393e-006
	5.350110548903826e-002,7.811135497126365e-002
	-1.287287621393216e-003,8.817067742868963e-004
	-1.233786515904178e-003,9.598181292581601e-004
	1.315857360699983e-003,-9.837975496290140e-004
	5.350110548903826e-005,7.811135497126364e-005
	-8.207084479580500e-005,2.397942037085393e-005
	-8.207084479572302e-005,2.397942037085393e-005
29		1.045151515151517e+007,0.000000000000000e+000
	1.903547590029572e-001,2.427873808207617e-001
	9.999919036285538e-001,2.427849529712319e-006
	5.696376824812140e-002,7.919877005371599e-002
	-1.306723877296604e-003,9.398620213435730e-004
	-1.249760109048482e-003,1.019060791397289e-003
	1.330723823511042e-003,-1.043339286694412e-003
	5.696376824812140e-005,7.919877005371599e-005
	-8.096371446255968e-005,2.427849529712319e-005
	-8.096371446164596e-005,2.427849529712319e-005
30		1.046363636363639e+007,0.000000000000000e+000
	2.022363800191861e-001,2.454015220460474e-001
	9.999920224435758e-001,2.453990680553669e-006
	6.068744527144178e-002,8.017745837738800e-002
	-1.324405753550832e-003,1.002461331556332e-003
	-1.263718308279390e-003,1.082638789933719e-003
	1.343493872521829e-003,-1.107178696739256e-003
	6.068744527144178e-005,8.017745837738801e-005
	-7.977556424243897e-005,2.453990680553669e-005
	-7.977556424232368e-005,2.453990680553669e-005
31		1.047575757575760e+007,0.000000000000000e+000
	2.149712017488783e-001,2.475403950648511e-001
	9.999921497905197e-001,2.475379196856542e-006
	6.468699382648120e-002,8.101678249780413e-002
	-1.339820339900826e-003,1.069765391610161e-003
	-1.275133346074345e-003,1.150782174107965e-003
	1.353635440878509e-003,-1.175535966076531e-003
	6.468699382648120e-005,8.101678249780413e-005
	-7.850209480416414e-005,2.475379196856542e-005
	-7.850209480353421e-005,2.475379196856542e-005
32		1.048787878787881e+007,0.000000000000000e+000
	2.285962648923886e-001,2.490885901552183e-001
	9.999922860397886e-001,2.490860992942253e-006
	6.897560352840380e-002,8.168072298015536e-002
	-1.352363273078977e-003,1.142008414554958e-003
	-1.283387669550573e-003,1.223689137535114e-003
	1.360527271665313e-003,-1.248597747464536e-003
	6.897560352840380e-005,8.168072298015536e-005
	-7.713960211474001e-005,2.490860992942253e-005
	-7.713960211375159e-005,2.490860992942253e-005
33		1.050000000000002e+007,0.000000000000000e+000
	2.431392370770652e-001,2.499122714043269e-001
	9.999924314680562e-001,2.499097723066038e-006
	7.356373597388040e-002,8.212731391926552e-002
	-1.361328865150491e-003,1.219380403795978e-003
	-1.287765129176611e-003,1.301507717715243e-003
	1.363450448615710e-003,-1.326498694945903e-003
	7.356373597388040e-005,8.212731391926552e-005
	-7.568531943909911e-005,2.499097723066038e-005
	-7.568531943835666e-005,2.499097723066038e-005
34		1.051212121212124e+007,0.000000000000000e+000
	2.586140572141225e-001,2.498578857256581e-001
	9.999925862147101e-001,2.498553871717864e-006
	7.845776397368912e-002,8.230817897564037e-002
	-1.365901835111702e-003,1.302004310193025e-003
	-1.287444071138012e-003,1.384312489168666e-003
	1.361581924038072e-003,-1.409298027885845e-003
	7.845776397368912e-005,8.230817897564038e-005
	-7.413785290005876e-005,2.498553871717864e-005
	-7.413785289900332e-005,2.498553871717864e-005
35		1.052424242424245e+007,0.000000000000000e+000
	2.750155317006104e-001,2.487515243771374e-001
	9.999927502278148e-001,2.487490368867686e-006
	8.365827099933670e-002,8.216826032305638e-002
	-1.365152192272997e-003,1.389907387688318e-003
	-1.281493921273660e-003,1.472075648011374e-003
	1.353991643126380e-003,-1.496950551700051e-003
	8.365827099933670e-005,8.216826032305638e-005
	-7.249772185272044e-005,2.487490368867686e-005
	-7.249772185247139e-005,2.487490368867686e-005
36		1.053636363636366e+007,0.000000000000000e+000
	2.923128285356064e-001,2.463993367235572e-001
	9.999929231990534e-001,2.463968727548297e-006
	8.915798867429768e-002,8.164586621955039e-002
	-1.358035388261851e-003,1.482986333200940e-003
	-1.268877399587553e-003,1.564632199420490e-003
	1.339645409053898e-003,-1.589271886695974e-003
	8.915798867429768e-005,8.164586621955039e-005
	-7.076800946634471e-005,2.463968727548297e-005
	-7.076800946581585e-005,2.463968727548297e-005
37		1.054848484848488e+007,0.000000000000000e+000
	3.104419248202628e-001,2.425895059516080e-001
	9.999931044882033e-001,2.425870800808072e-006
	9.493938332643609e-002,8.067319908563961e-002
	-1.343400476074785e-003,1.580966345757374e-003
	-1.248461092748349e-003,1.661639544843013e-003
	1.317416210715143e-003,-1.685898252851094e-003
	9.493938332643608e-005,8.067319908563961e-005
	-6.895511796679405e-005,2.425870800808072e-005
	-6.895511796667364e-005,2.425870800808072e-005
38		1.056060606060609e+007,0.000000000000000e+000
	3.292972406110515e-001,2.370963948444453e-001
	9.999932930394758e-001,2.370940239042063e-006
	1.009719574856919e-001,7.917755935972727e-002
	-1.320009595985665e-003,1.683355156238413e-003
	-1.219037638499973e-003,1.762532715598141e-003
	1.286107243742815e-003,-1.786242117988561e-003
	1.009719574856919e-004,7.917755935972727e-005
	-6.706960524284242e-005,2.370940239042063e-005
	-6.706960524183181e-005,2.370940239042063e-005
39		1.057272727272730e+007,0.000000000000000e+000
	3.487229515361559e-001,2.296875242446453e-001
	9.999934872946424e-001,2.296852273923714e-006
	1.072094135505575e-001,7.708344096131550e-002
	-1.286572481180750e-003,1.789394446816350e-003
	-1.179363067630193e-003,1.866477887777666e-003
	1.244490121206042e-003,-1.889446410516903e-003
	1.072094135505575e-004,7.708344096131551e-005
	-6.512705357584866e-005,2.296852273923713e-005
	-6.512705357564208e-005,2.296852273923713e-005
40		1.058484848484851e+007,0.000000000000000e+000
	3.685048157854018e-001,2.201340089189597e-001
	9.999936851113068e-001,2.201318076008837e-006
	1.135869358548885e-001,7.431572659584861e-002
	-1.241799582089689e-003,1.898012923193679e-003
	-1.128212646234801e-003,1.972328649789527e-003
	1.191361533167391e-003,-1.994341830549615e-003
	1.135869358548885e-004,7.431572659584860e-005
	-6.314888693259051e-005,2.201318076008837e-005
	-6.314888693181864e-005,2.201318076008837e-005
41		1.059696969696973e+007,0.000000000000000e+000
	3.883637549821482e-001,2.082248823737229e-001
	9.999938836987129e-001,2.082228001457215e-006
	1.200189775546032e-001,7.080413522400107e-002
	-1.184476504927729e-003,2.007787519883258e-003
	-1.064457527373126e-003,2.078591655107259e-003
	1.125620540244783e-003,-2.099413935121831e-003
	1.200189775546032e-004,7.080413522400107e-005
	-6.116301287165647e-005,2.082228001457215e-005
	-6.116301287106829e-005,2.082228001457215e-005
42		1.060909090909094e+007,0.000000000000000e+000
	4.079528296745114e-001,1.937853276253717e-001
	9.999940795875010e-001,1.937833897914738e-006
	1.263980709311331e-001,6.648894807095791e-002
	-1.113560373910804e-003,2.116921491635941e-003
	-9.871623029796706e-004,2.183410439706899e-003
	1.046366427970970e-003,-2.202788778686046e-003
	1.263980709311331e-004,6.648894807095791e-005
	-5.920412499129897e-005,1.937833897914738e-005
	-5.920412499027528e-005,1.937833897914738e-005
43		1.062121212121215e+007,0.000000000000000e+000
	4.268595328426662e-001,1.766981499192872e-001
	9.999942686526420e-001,1.766963829554576e-006
	1.325952778034365e-001,6.132782782749355e-002
	-1.028295180631099e-003,2.223249868285575e-003
	-8.956999028276622e-004,2.284577696113068e-003
	9.530133764086596e-004,-2.302247334408614e-003
	1.325952778034365e-004,6.132782782749354e-005
	-5.731347358099758e-005,1.766963829554576e-005
	-5.731347358040040e-005,1.766963829554576e-005
44		1.063333333333337e+007,0.000000000000000e+000
	4.446153224619610e-001,1.569268947273198e-001
	9.999944462087625e-001,1.569253254740651e-006
	1.384629079315567e-001,5.530325074891997e-002
	-9.283382046531199e-004,2.324283032543830e-003
	-7.898752967215634e-004,2.379586283292750e-003
	8.454132090962437e-004,-2.395278815840157e-003
	1.384629079315567e-004,5.530325074891998e-005
	-5.553791237468015e-005,1.569253254740651e-005
	-5.553791237455918e-005,1.569253254740651e-005
45		1.064545454545458e+007,0.000000000000000e+000
	4.607138405341499e-001,1.345379501532098e-001
	9.999946071923335e-001,1.345366047871619e-006
	1.438399971497938e-001,4.842972878731430e-002
	-8.138837588095083e-004,2.417296988416922e-003
	-6.700437616597145e-004,2.465726717204236e-003
	7.239718383255328e-004,-2.479180377682953e-003
	1.438399971497939e-004,4.842972878731430e-005
	-5.392807666581836e-005,1.345366047871619e-005
	-5.392807666537713e-005,1.345366047871620e-005
46		1.065757575757579e+007,0.000000000000000e+000
	4.746381849530427e-001,1.097180324131988e-001
	9.999947464343852e-001,1.097169352438463e-006
	1.485607071683156e-001,4.075968767521979e-002
	-6.857651506077039e-004,2.499473414454165e-003
	-5.372044434393883e-004,2.540233102129385e-003
	5.897400995875225e-004,-2.551204795653770e-003
	1.485607071683156e-004,4.075968767521979e-005
	-5.253565614813425e-005,1.097169352438463e-005
	-5.253565614760092e-005,1.097169352438463e-005
47		1.066969696969700e+007,0.000000000000000e+000
	4.858959275238061e-001,8.278300667068084e-002
	9.999948590106852e-001,8.278217884889235e-007
	1.524652856639558e-001,3.238670431525403e-002
	-5.455128393720598e-004,2.568083806200778e-003
	-3.930475537081039e-004,2.600470510516032e-003
	4.444574468567918e-004,-2.608748728400921e-003
	1.524652856639558e-004,3.238670431525403e-005
	-5.140989314868792e-005,8.278217884889235e-006
	-5.140989314811328e-005,8.278217884889235e-006
48		1.068181818181822e+007,0.000000000000000e+000
	4.940585670973559e-001,5.417442781736162e-002
	9.999949406362647e-001,5.417388607850084e-007
	1.554125859538637e-001,2.344491787882699e-002
	-3.953484428540130e-004,2.620701176021760e-003
	-2.399358569001493e-004,2.644146093900587e-003
	2.905294942540402e-004,-2.649563482508437e-003
	1.554125859538637e-004,2.344491787882699e-005
	-5.059363735389089e-005,5.417388607850084e-006
	-5.059363735293587e-005,5.417388607850084e-006
49		1.069393939393943e+007,0.000000000000000e+000
	4.988002944935324e-001,2.444171817853262e-002
	9.999949880530644e-001,2.444147376379499e-007
	1.572925528736825e-001,1.410389037565784e-002
	-2.381018542034000e-004,2.655412619786708e-003
	-8.080930132971752e-005,2.669516510162365e-003
	1.309287706856707e-004,-2.671960657538745e-003
	1.572925528736825e-004,1.410389037565784e-005
	-5.011946935595321e-005,2.444147376379499e-006
	-5.011946935584710e-005,2.444147376379499e-006
50		1.070606060606064e+007,0.000000000000000e+000
	4.999299891490526e-001,-5.789598651867534e-003
	9.999949993498980e-001,-5.789540756459970e-008
	1.580367469295116e-001,4.558971436035380e-003
	-7.705178497598663e-005,2.671000161673890e-003
	8.098496195352500e-005,2.675559133109926e-003
	-3.097846093344046e-005,-2.674980179034280e-003
	1.580367469295116e-004,4.558971436035380e-006
	-5.000650102008455e-005,-5.789540756459969e-007
	-5.000650102005011e-005,-5.789540756459969e-007
51		1.071818181818186e+007,0.000000000000000e+000
	4.974108077422856e-001,-3.586027883973549e-002
	9.999949741583359e-001,-3.585992024053309e-007
	1.576250807840079e-001,-4.981852214232261e-003
	8.429427803204700e-005,2.667058718938461e-003
	2.419193588160549e-004,2.662076866724229e-003
	-1.916609421744498e-004,-2.658490874700176e-003
	1.576250807840079e-004,-4.981852214232261e-006
	-5.025841664160505e-005,-3.585992024053308e-006
	-5.025841664063613e-005,-3.585992024053308e-006
52		1.073030303030307e+007,0.000000000000000e+000
	4.913636865274796e-001,-6.512457152115858e-002
	9.999949136877284e-001,-6.512392028195577e-007
	1.560875309702818e-001,-1.431284113070700e-002
	2.424509961908598e-004,2.644029723457648e-003
	3.985385271611415e-004,2.629716882326941e-003
	-3.476754044451166e-004,-2.623204490298745e-003
	1.560875309702818e-004,-1.431284113070700e-005
	-5.086312271602488e-005,-6.512392028195577e-006
	-5.086312271584959e-005,-6.512392028195577e-006
53		1.074242424242428e+007,0.000000000000000e+000
	4.820541171018670e-001,-9.299531508205342e-002
	9.999948205929652e-001,-9.299438513820204e-007
	1.535005334363249e-001,-2.324493220762109e-002
	3.942000897786337e-004,2.603144785332119e-003
	5.477006232149588e-004,2.579899853124499e-003
	-4.959065528658491e-004,-2.570600414610678e-003
	1.535005334363249e-004,-2.324493220762109e-005
	-5.179407034910981e-005,-9.299438513820203e-006
	-5.179407034816563e-005,-9.299438513820203e-006
54		1.075454545454549e+007,0.000000000000000e+000
	4.698647802975797e-001,-1.189805060193853e-001
	9.999946987008160e-001,-1.189793162262230e-006
	1.499787981774116e-001,-3.161765228771173e-002
	5.367941988900293e-004,2.546291169424447e-003
	6.867729970674407e-004,2.514673517136734e-003
	-6.337600052271171e-004,-2.502775585514112e-003
	1.499787981774116e-004,-3.161765228771173e-005
	-5.301299184032364e-005,-1.189793162262230e-005
	-5.301299183968489e-005,-1.189793162262230e-005
55		1.076666666666671e+007,0.000000000000000e+000
	4.552590670331639e-001,-1.427069734692990e-001
	9.999945526451439e-001,-1.427055464138349e-006
	1.456640772259430e-001,-3.930707111031236e-002
	6.680947935453708e-004,2.475824548924781e-003
	8.137588707713136e-004,2.436517477814469e-003
	-7.592853222101156e-004,-2.422246923173085e-003
	1.456640772259431e-004,-3.930707111031236e-005
	-5.447354856119800e-005,-1.427055464138348e-005
	-5.447354856080722e-005,-1.427055464138348e-005
56		1.077878787878792e+007,0.000000000000000e+000
	4.387415425149855e-001,-1.639296237969271e-001
	9.999943874715505e-001,-1.639279845170820e-006
	1.407127814254646e-001,-4.622923051553832e-002
	7.866340211103597e-004,2.394360880333753e-003
	9.273468025358242e-004,2.348131649818215e-003
	-8.712215180401678e-004,-2.331738851366507e-003
	1.407127814254646e-004,-4.622923051553833e-005
	-5.612528449565651e-005,-1.639279845170820e-005
	-5.612528449550069e-005,-1.639279845170820e-005
57		1.079090909090913e+007,0.000000000000000e+000
	4.208209415160403e-001,-1.825274453679631e-001
	9.999942082673325e-001,-1.825256201117620e-006
	1.352842281051674e-001,-5.233935471696869e-002
	8.916050775917906e-004,2.304577604155056e-003
	1.026889305696958e-003,2.252238249438086e-003
	-9.689719790218287e-004,-2.233985687426911e-003
	1.352842281051674e-004,-5.233935471696869e-005
	-5.791732667512922e-005,-1.825256201117620e-005
	-5.791732667459471e-005,-1.825256201117620e-005
58		1.080303030303035e+007,0.000000000000000e+000
	4.019797333070144e-001,-1.984893877740855e-001
	9.999940198571345e-001,-1.984874029000565e-006
	1.295308365423471e-001,-5.762777471419394e-002
	9.827964504992505e-004,2.209046714286232e-003
	1.112327287041597e-003,2.151418939572038e-003
	-1.052525858386585e-003,-2.131570199282032e-003
	1.295308365423471e-004,-5.762777471419394e-005
	-5.980142865501202e-005,-1.984874029000565e-005
	-5.980142865458227e-005,-1.984874029000565e-005
59		1.081515151515156e+007,0.000000000000000e+000
	3.826523133297627e-001,-2.118940648749349e-001
	9.999938265848675e-001,-2.118919459554754e-006
	1.235909722264474e-001,-6.211378933860946e-002
	1.060490465201840e-003,2.110111925657427e-003
	1.184081437428288e-003,2.047998136318817e-003
	-1.122347286102777e-003,-2.026808941723270e-003
	1.235909722264474e-004,-6.211378933860946e-005
	-6.173415132551047e-005,-2.118919459554754e-005
	-6.173415132537663e-005,-2.118919459554754e-005
60		1.082727272727277e+007,0.000000000000000e+000
	3.632120562975456e-001,-2.228870857851444e-001
	9.999936321842412e-001,-2.228848569365750e-006
	1.175845628200439e-001,-6.583866282524103e-002
	1.125346367549541e-003,2.009812395501864e-003
	1.242930930369585e-003,1.943973732676623e-003
	-1.179252772780915e-003,-1.921685246982965e-003
	1.175845628200439e-004,-6.583866282524104e-005
	-6.367815758866957e-005,-2.228848569365750e-005
	-6.367815758800965e-005,-2.228848569365750e-005
61		1.083939393939398e+007,0.000000000000000e+000
	3.439661603944769e-001,-2.316590349242242e-001
	9.999934397272068e-001,-2.316567183570406e-006
	1.116111860355789e-001,-6.885872791093609e-002
	1.178284408266016e-003,1.909848239774322e-003