Title: * C:/Users/merch/OneDrive/Documents/LTSpice/RF/impedanceTransformers/imp_transfx/RF_impedance_Transformer_NoBW.asc
Date: Mon Aug 14 18:43:14 2017
Plotname: AC Analysis
Flags: complex forward linear
No. Variables: 9
No. Points:          500
Offset:   0.0000000000000000e+000
Command: Linear Technology Corporation LTspice XVII
Variables:
	0	frequency	frequency
	1	V(c)	voltage
	2	V(out)	voltage
	3	V(n01)	voltage
	4	I(C1)	device_current
	5	I(L_rfc)	device_current
	6	I(Rt)	device_current
	7	I(Rl)	device_current
	8	I(Vcc)	device_current
Values:
0		7.910000000000000e+007,0.000000000000000e+000
	1.159174806562862e-001,2.409124601529131e-001
	-2.525619870586605e-002,1.584173363249571e-002
	1.000000000000000e+000,0.000000000000000e+000
	-2.525619870586605e-004,1.584173363249570e-004
	4.293784909274033e-004,-2.065998283555396e-004
	1.768165038687428e-004,-4.818249203058262e-005
	-2.525619870586606e-004,1.584173363249571e-004
	-1.768165038687428e-004,4.818249203058262e-005
1		7.918657314629258e+007,0.000000000000000e+000
	1.168566172157049e-001,2.415358902535553e-001
	-2.533903084172418e-002,1.597387726767493e-002
	1.000000000000000e+000,0.000000000000000e+000
	-2.533903084172419e-004,1.597387726767493e-004
	4.300189849741009e-004,-2.080459507274604e-004
	1.766286765568590e-004,-4.830717805071106e-005
	-2.533903084172418e-004,1.597387726767493e-004
	-1.766286765568590e-004,4.830717805071106e-005
2		7.927314629258516e+007,0.000000000000000e+000
	1.178041036419888e-001,2.421587199826884e-001
	-2.542178330936629e-002,1.610720199912046e-002
	1.000000000000000e+000,0.000000000000000e+000
	-2.542178330936628e-004,1.610720199912046e-004
	4.306570123652651e-004,-2.095037639877423e-004
	1.764391792716023e-004,-4.843174399653768e-005
	-2.542178330936629e-004,1.610720199912046e-004
	-1.764391792716023e-004,4.843174399653768e-005
3		7.935971943887775e+007,0.000000000000000e+000
	1.187600113666094e-001,2.427808874073049e-001
	-2.550444734248022e-002,1.624171792900396e-002
	1.000000000000000e+000,0.000000000000000e+000
	-2.550444734248022e-004,1.624171792900396e-004
	4.312924711514804e-004,-2.109733567715006e-004
	1.762479977266781e-004,-4.855617748146098e-005
	-2.550444734248022e-004,1.624171792900396e-004
	-1.762479977266781e-004,4.855617748146098e-005
4		7.944629258517033e+007,0.000000000000000e+000
	1.197244121175427e-001,2.434023291969331e-001
	-2.558701397713744e-002,1.637743520142757e-002
	1.000000000000000e+000,0.000000000000000e+000
	-2.558701397713744e-004,1.637743520142757e-004
	4.319252573478659e-004,-2.124548178536623e-004
	1.760551175764915e-004,-4.868046583938663e-005
	-2.558701397713744e-004,1.637743520142757e-004
	-1.760551175764915e-004,4.868046583938663e-005
5		7.953286573146291e+007,0.000000000000000e+000
	1.206973779077340e-001,2.440229805991626e-001
	-2.566947404833169e-002,1.651436400079253e-002
	1.000000000000000e+000,0.000000000000000e+000
	-2.566947404833169e-004,1.651436400079253e-004
	4.325552649017701e-004,-2.139482361277579e-004
	1.758605244184532e-004,-4.880459611983252e-005
	-2.566947404833169e-004,1.651436400079253e-004
	-1.758605244184532e-004,4.880459611983252e-005
6		7.961943887775549e+007,0.000000000000000e+000
	1.216789810230154e-001,2.446427754148845e-001
	-2.575181818647745e-002,1.665251455009056e-002
	1.000000000000000e+000,0.000000000000000e+000
	-2.575181818647745e-004,1.665251455009056e-004
	4.331823856601714e-004,-2.154537005838824e-004
	1.756642037953969e-004,-4.892855508297689e-005
	-2.575181818647745e-004,1.665251455009056e-004
	-1.756642037953969e-004,4.892855508297689e-005
7		7.970601202404808e+007,0.000000000000000e+000
	1.226692940094598e-001,2.452616459732515e-001
	-2.583403681386870e-002,1.679189710911531e-002
	1.000000000000000e+000,0.000000000000000e+000
	-2.583403681386870e-004,1.679189710911532e-004
	4.338065093367950e-004,-2.169713002858035e-004
	1.754661411981081e-004,-4.905232919465030e-005
	-2.583403681386870e-004,1.679189710911532e-004
	-1.754661411981081e-004,4.905232919465030e-005
8		7.979258517034066e+007,0.000000000000000e+000
	1.236683896601539e-001,2.458795231063594e-001
	-2.591612014109830e-002,1.693252197259193e-002
	1.000000000000000e+000,0.000000000000000e+000
	-2.591612014109830e-004,1.693252197259192e-004
	4.344275234789522e-004,-2.185011243471912e-004
	1.752663220679693e-004,-4.917590462127189e-005
	-2.591612014109830e-004,1.693252197259193e-004
	-1.752663220679692e-004,4.917590462127189e-005
9		7.987915831663324e+007,0.000000000000000e+000
	1.246763410013738e-001,2.464963361236541e-001
	-2.599805816343855e-002,1.707439946822189e-002
	1.000000000000000e+000,0.000000000000000e+000
	-2.599805816343855e-004,1.707439946822189e-004
	4.350453134341108e-004,-2.200432619069498e-004
	1.750647317997253e-004,-4.929926722473082e-005
	-2.599805816343855e-004,1.707439946822189e-004
	-1.750647317997253e-004,4.929926722473082e-005
10		7.996573146292582e+007,0.000000000000000e+000
	1.256932212781485e-001,2.471120127860692e-001
	-2.607984065718373e-002,1.721753995464145e-002
	1.000000000000000e+000,0.000000000000000e+000
	-2.607984065718374e-004,1.721753995464145e-004
	4.356597623162076e-004,-2.215978021036284e-004
	1.748613557443703e-004,-4.942240255721385e-005
	-2.607984065718373e-004,1.721753995464145e-004
	-1.748613557443703e-004,4.942240255721385e-005
11		8.005230460921840e+007,0.000000000000000e+000
	1.267191039391881e-001,2.477264792798972e-001
	-2.616145717595479e-002,1.736195381929014e-002
	1.000000000000000e+000,0.000000000000000e+000
	-2.616145717595479e-004,1.736195381929015e-004
	4.362707509717103e-004,-2.231648340488809e-004
	1.746561792121624e-004,-4.954529585597945e-005
	-2.616145717595479e-004,1.736195381929014e-004
	-1.746561792121624e-004,4.954529585597945e-005
12		8.013887775551099e+007,0.000000000000000e+000
	1.277540626211645e-001,2.483396601903993e-001
	-2.624289704696724e-002,1.750765147618774e-002
	1.000000000000000e+000,0.000000000000000e+000
	-2.624289704696724e-004,1.750765147618774e-004
	4.368781579454395e-004,-2.247444467999573e-004
	1.744491874757671e-004,-4.966793203807986e-005
	-2.624289704696724e-004,1.750765147618774e-004
	-1.744491874757671e-004,4.966793203807986e-005
13		8.022545090180357e+007,0.000000000000000e+000
	1.287981711323233e-001,2.489514784751611e-001
	-2.632414936726305e-002,1.765464336361665e-002
	1.000000000000000e+000,0.000000000000000e+000
	-2.632414936726306e-004,1.765464336361665e-004
	4.374818594461659e-004,-2.263367293311987e-004
	1.742403657735354e-004,-4.979029569503221e-005
	-2.632414936726305e-004,1.765464336361665e-004
	-1.742403657735354e-004,4.979029569503221e-005
14		8.031202404809615e+007,0.000000000000000e+000
	1.298515034354087e-001,2.495618554371969e-001
	-2.640520299990698e-002,1.780293994170712e-002
	1.000000000000000e+000,0.000000000000000e+000
	-2.640520299990698e-004,1.780293994170712e-004
	4.380817293119880e-004,-2.279417705045106e-004
	1.740296993129183e-004,-4.991237108743939e-005
	-2.640520299990698e-004,1.780293994170712e-004
	-1.740296993129183e-004,4.991237108743939e-005
15		8.039859719438873e+007,0.000000000000000e+000
	1.309141336298834e-001,2.501707106978127e-001
	-2.648604657014871e-002,1.795255168992277e-002
	1.000000000000000e+000,0.000000000000000e+000
	-2.648604657014870e-004,1.795255168992277e-004
	4.386776389755104e-004,-2.295596590387902e-004
	1.738171732740234e-004,-5.003414213956255e-005
	-2.648604657014870e-004,1.795255168992277e-004
	-1.738171732740233e-004,5.003414213956255e-005
16		8.048517034068131e+007,0.000000000000000e+000
	1.319861359334230e-001,2.507779621692307e-001
	-2.656666846155146e-002,1.810348910444350e-002
	1.000000000000000e+000,0.000000000000000e+000
	-2.656666846155147e-004,1.810348910444350e-004
	4.392694574288301e-004,-2.311904834782811e-004
	1.736027728133154e-004,-5.015559243384613e-005
	-2.656666846155146e-004,1.810348910444350e-004
	-1.736027728133154e-004,5.015559243384613e-005
17		8.057174348697390e+007,0.000000000000000e+000
	1.330675846626659e-001,2.513835260269863e-001
	-2.664705681208826e-002,1.825576269544315e-002
	1.000000000000000e+000,0.000000000000000e+000
	-2.664705681208826e-004,1.825576269544315e-004
	4.398570511883494e-004,-2.328343321598287e-004
	1.733864830674668e-004,-5.027670520539726e-005
	-2.664705681208826e-004,1.825576269544315e-004
	-1.733864830674668e-004,5.027670520539726e-005
18		8.065831663326648e+007,0.000000000000000e+000
	1.341585542132000e-001,2.519873166821042e-001
	-2.672719951020695e-002,1.840938298425913e-002
	1.000000000000000e+000,0.000000000000000e+000
	-2.672719951020695e-004,1.840938298425914e-004
	4.404402842594294e-004,-2.344912931790122e-004
	1.731682891573600e-004,-5.039746333642084e-005
	-2.672719951020695e-004,1.840938298425914e-004
	-1.731682891573600e-004,5.039746333642084e-005
19		8.074488977955906e+007,0.000000000000000e+000
	1.352591190387620e-001,2.525892467530606e-001
	-2.680708419086506e-002,1.856436050045088e-002
	1.000000000000000e+000,0.000000000000000e+000
	-2.680708419086506e-004,1.856436050045088e-004
	4.410190181008982e-004,-2.361614543551210e-004
	1.729481761922476e-004,-5.051784935061212e-005
	-2.680708419086506e-004,1.856436050045088e-004
	-1.729481761922476e-004,5.051784935061212e-005
20		8.083146292585164e+007,0.000000000000000e+000
	1.363693536296345e-001,2.531892270375446e-001
	-2.688669823153626e-002,1.872070577874467e-002
	1.000000000000000e+000,0.000000000000000e+000
	-2.688669823153626e-004,1.872070577874467e-004
	4.415931115894357e-004,-2.378449031949556e-004
	1.727261292740731e-004,-5.063784540750892e-005
	-2.688669823153627e-004,1.872070577874467e-004
	-1.727261292740731e-004,5.063784540750892e-005
21		8.091803607214423e+007,0.000000000000000e+000
	1.374893324902150e-001,2.537871664840241e-001
	-2.696602874818908e-002,1.887842935586136e-002
	1.000000000000000e+000,0.000000000000000e+000
	-2.696602874818908e-004,1.887842935586136e-004
	4.421624209838478e-004,-2.395417268554184e-004
	1.725021335019570e-004,-5.075743329680481e-005
	-2.696602874818908e-004,1.887842935586136e-004
	-1.725021335019570e-004,5.075743329680481e-005
22		8.100460921843681e+007,0.000000000000000e+000
	1.386191301157376e-001,2.543829721631308e-001
	-2.704506259124014e-002,1.903754176722444e-002
	1.000000000000000e+000,0.000000000000000e+000
	-2.704506259124015e-004,1.903754176722445e-004
	4.427267998892540e-004,-2.412520121048706e-004
	1.722761739768525e-004,-5.087659443262617e-005
	-2.704506259124014e-004,1.903754176722444e-004
	-1.722761739768525e-004,5.087659443262617e-005
23		8.109118236472939e+007,0.000000000000000e+000
	1.397588209681267e-001,2.549765492388729e-001
	-2.712378634148297e-002,1.919805354354525e-002
	1.000000000000000e+000,0.000000000000000e+000
	-2.712378634148297e-004,1.919805354354526e-004
	4.432860992212044e-004,-2.429758452832271e-004
	1.720482358063747e-004,-5.099530984777458e-005
	-2.712378634148297e-004,1.919805354354525e-004
	-1.720482358063747e-004,5.099530984777458e-005
24		8.117775551102197e+007,0.000000000000000e+000
	1.409084794509584e-001,2.555678009396878e-001
	-2.720218630599418e-002,1.935997520728189e-002
	1.000000000000000e+000,0.000000000000000e+000
	-2.720218630599418e-004,1.935997520728189e-004
	4.438401671697501e-004,-2.447133122607565e-004
	1.718183041098083e-004,-5.111356018793756e-005
	-2.720218630599418e-004,1.935997520728189e-004
	-1.718183041098083e-004,5.111356018793756e-005
25		8.126432865731455e+007,0.000000000000000e+000
	1.420681798835107e-001,2.561566285293493e-001
	-2.728024851401913e-002,1.952331726896942e-002
	1.000000000000000e+000,0.000000000000000e+000
	-2.728024851401913e-004,1.952331726896942e-004
	4.443888491634892e-004,-2.464644983955640e-004
	1.715863640232979e-004,-5.123132570586986e-005
	-2.728024851401914e-004,1.952331726896942e-004
	-1.715863640232979e-004,5.123132570586986e-005
26		8.135090180360714e+007,0.000000000000000e+000
	1.432379964738769e-001,2.567429312777400e-001
	-2.735795871283849e-002,1.968809022341754e-002
	1.000000000000000e+000,0.000000000000000e+000
	-2.735795871283848e-004,1.968809022341754e-004
	4.449319878336095e-004,-2.482294884897234e-004
	1.713524007052246e-004,-5.134858625554800e-005
	-2.735795871283849e-004,1.968809022341754e-004
	-1.713524007052246e-004,5.134858625554800e-005
27		8.143747494989972e+007,0.000000000000000e+000
	1.444180032911216e-001,2.573266064315058e-001
	-2.743530236361804e-002,1.985430454577287e-002
	1.000000000000000e+000,0.000000000000000e+000
	-2.743530236361805e-004,1.985430454577287e-004
	4.454694229779562e-004,-2.500083667440299e-004
	1.711163993417757e-004,-5.146532128630116e-005
	-2.743530236361804e-004,1.985430454577287e-004
	-1.711163993417757e-004,5.146532128630116e-005
28		8.152404809619230e+007,0.000000000000000e+000
	1.456082742364560e-001,2.579075491846055e-001
	-2.751226463724388e-002,2.002197068744249e-002
	1.000000000000000e+000,0.000000000000000e+000
	-2.751226463724387e-004,2.002197068744249e-004
	4.460009915251476e-004,-2.518012167113460e-004
	1.708783451527088e-004,-5.158150983692109e-005
	-2.751226463724388e-004,2.002197068744249e-004
	-1.708783451527088e-004,5.158150983692109e-005
29		8.161062124248488e+007,0.000000000000000e+000
	1.468088830134086e-001,2.584856526487734e-001
	-2.758883041014498e-002,2.019109907187548e-002
	1.000000000000000e+000,0.000000000000000e+000
	-2.758883041014499e-004,2.019109907187548e-004
	4.465265274987682e-004,-2.536081212485094e-004
	1.706382233973183e-004,-5.169713052975468e-005
	-2.758883041014498e-004,2.019109907187548e-004
	-1.706382233973183e-004,5.169713052975468e-005
30		8.169719438877747e+007,0.000000000000000e+000
	1.480199030969688e-001,2.590608078239097e-001
	-2.766498426010590e-002,2.036170009019915e-002
	1.000000000000000e+000,0.000000000000000e+000
	-2.766498426010590e-004,2.036170009019915e-004
	4.470458619816653e-004,-2.554291624667734e-004
	1.703960193806062e-004,-5.181216156478194e-005
	-2.766498426010590e-004,2.036170009019915e-004
	-1.703960193806062e-004,5.181216156478194e-005
31		8.178376753507005e+007,0.000000000000000e+000
	1.492414077016786e-001,2.596329035684178e-001
	-2.774071046207171e-002,2.053378409670652e-002
	1.000000000000000e+000,0.000000000000000e+000
	-2.774071046207171e-004,2.053378409670652e-004
	4.475588230803813e-004,-2.572644216807488e-004
	1.701517184596643e-004,-5.192658071368357e-005
	-2.774071046207171e-004,2.053378409670652e-004
	-1.701517184596643e-004,5.192658071368357e-005
32		8.187034068136263e+007,0.000000000000000e+000
	1.504734697486502e-001,2.602018265695081e-001
	-2.781599298394827e-002,2.070736140419197e-002
	1.000000000000000e+000,0.000000000000000e+000
	-2.781599298394827e-004,2.070736140419197e-004
	4.480652358897527e-004,-2.591139793558213e-004
	1.699053060502700e-004,-5.204036531390163e-005
	-2.781599298394827e-004,2.070736140419197e-004
	-1.699053060502700e-004,5.204036531390163e-005
33		8.195691382765521e+007,0.000000000000000e+000
	1.517161618314840e-001,2.607674613134848e-001
	-2.789081548240022e-002,2.088244227913123e-002
	1.000000000000000e+000,0.000000000000000e+000
	-2.789081548240022e-004,2.088244227913123e-004
	4.485649224577053e-004,-2.609779150540093e-004
	1.696567676337032e-004,-5.215349226269697e-005
	-2.789081548240022e-004,2.088244227913123e-004
	-1.696567676337032e-004,5.215349226269697e-005
34		8.204348697394779e+007,0.000000000000000e+000
	1.529695561810637e-001,2.613296900560407e-001
	-2.796516129864987e-002,2.105903693670277e-002
	1.000000000000000e+000,0.000000000000000e+000
	-2.796516129864987e-004,2.105903693670277e-004
	4.490577017502860e-004,-2.628563073782358e-004
	1.694060887637872e-004,-5.226593801120814e-005
	-2.796516129864988e-004,2.105903693670277e-004
	-1.694060887637873e-004,5.226593801120814e-005
35		8.213006012024038e+007,0.000000000000000e+000
	1.542337246292027e-001,2.618883927925775e-001
	-2.803901345427994e-002,2.123715553564651e-002
	1.000000000000000e+000,0.000000000000000e+000
	-2.803901345427995e-004,2.123715553564652e-004
	4.495433896169589e-004,-2.647492339149806e-004
	1.691532550741595e-004,-5.237767855851550e-005
	-2.803901345427994e-004,2.123715553564651e-004
	-1.691532550741595e-004,5.237767855851550e-005
36		8.221663326653296e+007,0.000000000000000e+000
	1.555087385711211e-001,2.624434472285784e-001
	-2.811235464704351e-002,2.141680817295740e-002
	1.000000000000000e+000,0.000000000000000e+000
	-2.811235464704351e-004,2.141680817295741e-004
	4.500217987562109e-004,-2.666567711752897e-004
	1.688982522857758e-004,-5.248868944571569e-005
	-2.811235464704351e-004,2.141680817295741e-004
	-1.688982522857758e-004,5.248868944571569e-005
37		8.230320641282554e+007,0.000000000000000e+000
	1.567946689267221e-001,2.629947287500538e-001
	-2.818516724668435e-002,2.159800487840900e-002
	1.000000000000000e+000,0.000000000000000e+000
	-2.818516724668435e-004,2.159800487840899e-004
	4.504927386814990e-004,-2.685789945341007e-004
	1.686410662146556e-004,-5.259894575001076e-005
	-2.818516724668435e-004,2.159800487840900e-004
	-1.686410662146556e-004,5.259894575001076e-005
38		8.238977955911812e+007,0.000000000000000e+000
	1.580915861006526e-001,2.635421103940877e-001
	-2.825743329077160e-002,2.178075560890514e-002
	1.000000000000000e+000,0.000000000000000e+000
	-2.825743329077161e-004,2.178075560890514e-004
	4.509560156875855e-004,-2.705159781678690e-004
	1.683816827798695e-004,-5.270842207881755e-005
	-2.825743329077159e-004,2.178075560890514e-004
	-1.683816827798695e-004,5.270842207881755e-005
39		8.247635270541070e+007,0.000000000000000e+000
	1.593995599411116e-001,2.640854628195083e-001
	-2.832913448055191e-002,2.196507024265479e-002
	1.000000000000000e+000,0.000000000000000e+000
	-2.832913448055191e-004,2.196507024265479e-004
	4.514114328172968e-004,-2.724677949904495e-004
	1.681200880117777e-004,-5.281709256390166e-005
	-2.832913448055191e-004,2.196507024265479e-004
	-1.681200880117777e-004,5.281709256390166e-005
40		8.256292585170329e+007,0.000000000000000e+000
	1.607186596973935e-001,2.646246542777136e-001
	-2.840025217682348e-002,2.215095857316748e-002
	1.000000000000000e+000,0.000000000000000e+000
	-2.840025217682348e-004,2.215095857316748e-004
	4.518587898287561e-004,-2.744345165872175e-004
	1.678562680605213e-004,-5.292493085554273e-005
	-2.840025217682348e-004,2.215095857316748e-004
	-1.678562680605213e-004,5.292493085554273e-005
41		8.264949899799587e+007,0.000000000000000e+000
	1.620489539761338e-001,2.651595505836791e-001
	-2.847076739583593e-002,2.233843030306573e-002
	1.000000000000000e+000,0.000000000000000e+000
	-2.847076739583593e-004,2.233843030306573e-004
	4.522978831631326e-004,-2.764162131473932e-004
	1.675902092047732e-004,-5.303191011673581e-005
	-2.847076739583593e-004,2.233843030306573e-004
	-1.675902092047733e-004,5.303191011673581e-005
42		8.273607214428845e+007,0.000000000000000e+000
	1.633905106962341e-001,2.656900150871758e-001
	-2.854066080521992e-002,2.252749503771042e-002
	1.000000000000000e+000,0.000000000000000e+000
	-2.854066080521992e-004,2.252749503771042e-004
	4.527285059129523e-004,-2.784129533945393e-004
	1.673218978607532e-004,-5.313800301743517e-005
	-2.854066080521992e-004,2.252749503771042e-004
	-1.673218978607532e-004,5.313800301743517e-005
43		8.282264529058103e+007,0.000000000000000e+000
	1.647433970424441e-001,2.662159086442343e-001
	-2.860991271995142e-002,2.271816227863625e-002
	1.000000000000000e+000,0.000000000000000e+000
	-2.860991271995142e-004,2.271816227863625e-004
	4.531504477910254e-004,-2.804248045152093e-004
	1.670513205915112e-004,-5.324318172884686e-005
	-2.860991271995142e-004,2.271816227863625e-004
	-1.670513205915112e-004,5.324318172884686e-005
44		8.290921843687362e+007,0.000000000000000e+000
	1.661076794175750e-001,2.667370895888835e-001
	-2.867850309835506e-002,2.291044141679380e-002
	1.000000000000000e+000,0.000000000000000e+000
	-2.867850309835506e-004,2.291044141679380e-004
	4.535634951000356e-004,-2.824518320857147e-004
	1.667784641164850e-004,-5.334741791777671e-005
	-2.867850309835506e-004,2.291044141679381e-004
	-1.667784641164850e-004,5.334741791777671e-005
45		8.299579158316620e+007,0.000000000000000e+000
	1.674834233933182e-001,2.672534137052010e-001
	-2.874641153815130e-002,2.310434172559415e-002
	1.000000000000000e+000,0.000000000000000e+000
	-2.874641153815130e-004,2.310434172559415e-004
	4.539674307028494e-004,-2.844940999969817e-004
	1.665033153213364e-004,-5.345068274104020e-005
	-2.874641153815130e-004,2.310434172559415e-004
	-1.665033153213364e-004,5.345068274104020e-005
46		8.308236472945878e+007,0.000000000000000e+000
	1.688706936596475e-001,2.677647341997076e-001
	-2.881361727255255e-002,2.329987235375337e-002
	1.000000000000000e+000,0.000000000000000e+000
	-2.881361727255254e-004,2.329987235375337e-004
	4.543620339935960e-004,-2.865516703774752e-004
	1.662258612680705e-004,-5.355294683994153e-005
	-2.881361727255255e-004,2.329987235375337e-004
	-1.662258612680705e-004,5.355294683994153e-005
47		8.316893787575136e+007,0.000000000000000e+000
	1.702695539727816e-001,2.682709016741481e-001
	-2.888009916641353e-002,2.349704231793322e-002
	1.000000000000000e+000,0.000000000000000e+000
	-2.888009916641353e-004,2.349704231793322e-004
	4.547470808695790e-004,-2.886246035141618e-004
	1.659460892054437e-004,-5.365418033482962e-005
	-2.888009916641353e-004,2.349704231793322e-004
	-1.659460892054437e-004,5.365418033482962e-005
48		8.325551102204394e+007,0.000000000000000e+000
	1.716800671016792e-001,2.687717640986899e-001
	-2.894583571244122e-002,2.369586049517448e-002
	1.000000000000000e+000,0.000000000000000e+000
	-2.894583571244122e-004,2.369586049517448e-004
	4.551223437040764e-004,-2.907129577714827e-004
	1.656639865796642e-004,-5.375435281973797e-005
	-2.894583571244122e-004,2.369586049517448e-004
	-1.656639865796642e-004,5.375435281973797e-005
49		8.334208416833653e+007,0.000000000000000e+000
	1.731022947730498e-001,2.692671667855862e-001
	-2.901080502747002e-002,2.389633561512029e-002
	1.000000000000000e+000,0.000000000000000e+000
	-2.901080502747002e-004,2.389633561512029e-004
	4.554875913200903e-004,-2.928167895083201e-004
	1.653795410453901e-004,-5.385343335711723e-005
	-2.901080502747002e-004,2.389633561512029e-004
	-1.653795410453901e-004,5.385343335711723e-005
50		8.342865731462911e+007,0.000000000000000e+000
	1.745362976148496e-001,2.697569523633406e-001
	-2.907498484880818e-002,2.409847625202529e-002
	1.000000000000000e+000,0.000000000000000e+000
	-2.907498484880818e-004,2.409847625202529e-004
	4.558425889651119e-004,-2.949361529929210e-004
	1.650927404770301e-004,-5.395139047266811e-005
	-2.907498484880818e-004,2.409847625202529e-004
	-1.650927404770301e-004,5.395139047266811e-005
51		8.351523046092169e+007,0.000000000000000e+000
	1.759821350982482e-001,2.702409607514194e-001
	-2.913835253066145e-002,2.430229081654843e-002
	1.000000000000000e+000,0.000000000000000e+000
	-2.913835253066144e-004,2.430229081654843e-004
	4.561870982869648e-004,-2.970711003157682e-004
	1.648035729803504e-004,-5.404819215028387e-005
	-2.913835253066145e-004,2.430229081654843e-004
	-1.648035729803504e-004,5.404819215028387e-005
52		8.360180360721427e+007,0.000000000000000e+000
	1.774398654780397e-001,2.707190291355541e-001
	-2.920088504064038e-002,2.450778754732589e-002
	1.000000000000000e+000,0.000000000000000e+000
	-2.920088504064038e-004,2.450778754732590e-004
	4.565208773107959e-004,-2.992216813003698e-004
	1.645120269043921e-004,-5.414380582711083e-005
	-2.920088504064038e-004,2.450778754732590e-004
	-1.645120269043921e-004,5.414380582711083e-005
53		8.368837675350685e+007,0.000000000000000e+000
	1.789095457314742e-001,2.711909919436824e-001
	-2.926255895635776e-002,2.471497450232050e-002
	1.000000000000000e+000,0.000000000000000e+000
	-2.926255895635776e-004,2.471497450232050e-004
	4.568436804172828e-004,-3.013879434119415e-004
	1.642180908537052e-004,-5.423819838873648e-005
	-2.926255895635776e-004,2.471497450232050e-004
	-1.642180908537052e-004,5.423819838873648e-005
54		8.377494989979944e+007,0.000000000000000e+000
	1.803912314954967e-001,2.716566808225747e-001
	-2.932335046212313e-002,2.492385954994602e-002
	1.000000000000000e+000,0.000000000000000e+000
	-2.932335046212313e-004,2.492385954994602e-004
	4.571552583221320e-004,-3.035699316639751e-004
	1.639217537009007e-004,-5.433133616451493e-005
	-2.932335046212313e-004,2.492385954994602e-004
	-1.639217537009007e-004,5.433133616451493e-005
55		8.386152304609202e+007,0.000000000000000e+000
	1.818849770023675e-001,2.721159246151970e-001
	-2.938323534574137e-002,2.513445035996249e-002
	1.000000000000000e+000,0.000000000000000e+000
	-2.938323534574137e-004,2.513445035996249e-004
	4.574553580569402e-004,-3.057676885226643e-004
	1.636230045995265e-004,-5.442318492303940e-005
	-2.938323534574137e-004,2.513445035996249e-004
	-1.636230045995265e-004,5.442318492303940e-005
56		8.394809619238460e+007,0.000000000000000e+000
	1.833908350136447e-001,2.725685493388609e-001
	-2.944218899542259e-002,2.534675439413995e-002
	1.000000000000000e+000,0.000000000000000e+000
	-2.944218899542259e-004,2.534675439413995e-004
	4.577437229514969e-004,-3.079812538091716e-004
	1.633218329972711e-004,-5.451370986777219e-005
	-2.944218899542259e-004,2.534675439413995e-004
	-1.633218329972711e-004,5.451370986777219e-005
57		8.403466933867718e+007,0.000000000000000e+000
	1.849088567525141e-001,2.730143781642150e-001
	-2.950018639681101e-002,2.556077889668842e-002
	1.000000000000000e+000,0.000000000000000e+000
	-2.950018639681101e-004,2.556077889668842e-004
	4.580200926176073e-004,-3.102106645997272e-004
	1.630182286494972e-004,-5.460287563284300e-005
	-2.950018639681101e-004,2.556077889668842e-004
	-1.630182286494972e-004,5.460287563284300e-005
58		8.412124248496977e+007,0.000000000000000e+000
	1.864390918344468e-001,2.734532313951323e-001
	-2.955720213014071e-002,2.577653088445148e-002
	1.000000000000000e+000,0.000000000000000e+000
	-2.955720213014071e-004,2.577653088445148e-004
	4.582842029345178e-004,-3.124559551235412e-004
	1.627121816331107e-004,-5.469064627902647e-005
	-2.955720213014071e-004,2.577653088445148e-004
	-1.627121816331107e-004,5.469064627902647e-005
59		8.420781563126235e+007,0.000000000000000e+000
	1.879815881961656e-001,2.738849264495510e-001
	-2.961321036752586e-002,2.599401713686051e-002
	1.000000000000000e+000,0.000000000000000e+000
	-2.961321036752586e-004,2.599401713686051e-004
	4.585357860360255e-004,-3.147171566585153e-004
	1.624036823607669e-004,-5.477698528991020e-005
	-2.961321036752586e-004,2.599401713686051e-004
	-1.624036823607669e-004,5.477698528991020e-005
60		8.429438877755493e+007,0.000000000000000e+000
	1.895363920229100e-001,2.743092778413276e-001
	-2.966818487039456e-002,2.621324418564847e-002
	1.000000000000000e+000,0.000000000000000e+000
	-2.966818487039456e-004,2.621324418564848e-004
	4.587745702993637e-004,-3.169942974247503e-004
	1.620927215954180e-004,-5.486185556826552e-005
	-2.966818487039456e-004,2.621324418564847e-004
	-1.620927215954180e-004,5.486185556826552e-005
61		8.438096192384751e+007,0.000000000000000e+000
	1.911035476739814e-001,2.747260971631641e-001
	-2.972209898707420e-002,2.643421830432048e-002
	1.000000000000000e+000,0.000000000000000e+000
	-2.972209898707420e-004,2.643421830432048e-004
	4.590002803359457e-004,-3.192874024758376e-004
	1.617792904652037e-004,-5.494521943263282e-005
	-2.972209898707420e-004,2.643421830432048e-004
	-1.617792904652037e-004,5.494521943263282e-005
62		8.446753507014009e+007,0.000000000000000e+000
	1.926830976065548e-001,2.751351930706694e-001
	-2.977492565053741e-002,2.665694549737898e-002
	1.000000000000000e+000,0.000000000000000e+000
	-2.977492565053741e-004,2.665694549737898e-004
	4.592126369840632e-004,-3.215964935879237e-004
	1.614633804786891e-004,-5.502703861413388e-005
	-2.977492565053741e-004,2.665694549737898e-004
	-1.614633804786890e-004,5.502703861413388e-005
63		8.455410821643268e+007,0.000000000000000e+000
	1.942750822977499e-001,2.755363712676226e-001
	-2.982663737631797e-002,2.688143148930311e-002
	1.000000000000000e+000,0.000000000000000e+000
	-2.982663737631797e-004,2.688143148930311e-004
	4.594113573036298e-004,-3.239215891465557e-004
	1.611449835404500e-004,-5.510727425352452e-005
	-2.982663737631797e-004,2.688143148930311e-004
	-1.611449835404500e-004,5.510727425352452e-005
64		8.464068136272526e+007,0.000000000000000e+000
	1.958795401649446e-001,2.759294344925031e-001
	-2.987720626060582e-002,2.710768171327924e-002
	1.000000000000000e+000,0.000000000000000e+000
	-2.987720626060583e-004,2.710768171327925e-004
	4.595961545730694e-004,-3.262627040312931e-004
	1.608240919670111e-004,-5.518588689850063e-005
	-2.987720626060582e-004,2.710768171327925e-004
	-1.608240919670111e-004,5.518588689850063e-005
65		8.472725450901784e+007,0.000000000000000e+000
	1.974965074843289e-001,2.763141825063562e-001
	-2.992660397853098e-002,2.733570129968283e-002
	1.000000000000000e+000,0.000000000000000e+000
	-2.992660397853098e-004,2.733570129968283e-004
	4.597667382884441e-004,-3.286198494980996e-004
	1.605006985031342e-004,-5.526283650127124e-005
	-2.992660397853098e-004,2.733570129968283e-004
	-1.605006985031342e-004,5.526283650127124e-005
66		8.481382765531042e+007,0.000000000000000e+000
	1.991260183076855e-001,2.766904120820649e-001
	-2.997480178264632e-002,2.756549506430933e-002
	1.000000000000000e+000,0.000000000000000e+000
	-2.997480178264631e-004,2.756549506430932e-004
	4.599228141649261e-004,-3.309930330595062e-004
	1.601747963384629e-004,-5.533808241641297e-005
	-2.997480178264632e-004,2.756549506430933e-004
	-1.601747963384629e-004,5.533808241641297e-005
67		8.490040080160300e+007,0.000000000000000e+000
	2.007681043773960e-001,2.770579169951001e-001
	-3.002177050161942e-002,2.779706749635436e-002
	1.000000000000000e+000,0.000000000000000e+000
	-3.002177050161942e-004,2.779706749635436e-004
	4.600640841407150e-004,-3.333822583625636e-004
	1.598463791245208e-004,-5.541158339902003e-005
	-3.002177050161942e-004,2.779706749635436e-004
	-1.598463791245208e-004,5.541158339902003e-005
68		8.498697394789559e+007,0.000000000000000e+000