Title: * C:/Users/merch/OneDrive/Documents/LTSpice/RF/impedanceTransformers/imp_transfx/RF_impedance_Transformer_NoBW.asc
Date: Wed Aug 23 04:48:48 2017
Plotname: AC Analysis
Flags: complex forward linear
No. Variables: 9
No. Points:          500
Offset:   0.0000000000000000e+000
Command: Linear Technology Corporation LTspice XVII
Variables:
	0	frequency	frequency
	1	V(c)	voltage
	2	V(out)	voltage
	3	V(n01)	voltage
	4	I(C1)	device_current
	5	I(L_rfc)	device_current
	6	I(Rt)	device_current
	7	I(Rl)	device_current
	8	I(Vcc)	device_current
Values:
0		1.890000000000000e+007,0.000000000000000e+000
	1.371852137516225e-001,2.316126641171700e-001
	-7.581401839690317e-003,4.839793592732455e-003
	1.000000000000000e+000,0.000000000000000e+000
	-1.516280367938063e-003,9.679587185464910e-004
	1.731984064500158e-003,-1.025861884575784e-003
	2.157036965620944e-004,-5.790316602929251e-005
	-1.516280367938064e-003,9.679587185464911e-004
	-2.157036965620944e-004,5.790316602929251e-005
1		1.890440881763527e+007,0.000000000000000e+000
	1.380415466240592e-001,2.320453499266720e-001
	-7.596626825831293e-003,4.870067030128218e-003
	1.000000000000000e+000,0.000000000000000e+000
	-1.519325365166259e-003,9.740134060256434e-004
	1.734814978510244e-003,-1.032024743507311e-003
	2.154896133439852e-004,-5.801133748166801e-005
	-1.519325365166259e-003,9.740134060256437e-004
	-2.154896133439852e-004,5.801133748166801e-005
2		1.890881763527054e+007,0.000000000000000e+000
	1.389044960558968e-001,2.324772158746298e-001
	-7.611822842000903e-003,4.900574398492686e-003
	1.000000000000000e+000,0.000000000000000e+000
	-1.522364568400180e-003,9.801148796985371e-004
	1.737638444386206e-003,-1.038234183667195e-003
	2.152738759860258e-004,-5.811930396865746e-005
	-1.522364568400181e-003,9.801148796985371e-004
	-2.152738759860258e-004,5.811930396865746e-005
3		1.891322645290582e+007,0.000000000000000e+000
	1.397741146850925e-001,2.329082162249520e-001
	-7.626988271178513e-003,4.931317558858697e-003
	1.000000000000000e+000,0.000000000000000e+000
	-1.525397654235703e-003,9.862635117717394e-004
	1.740454125564430e-003,-1.044490565827977e-003
	2.150564713287268e-004,-5.822705405623801e-005
	-1.525397654235703e-003,9.862635117717394e-004
	-2.150564713287269e-004,5.822705405623801e-005
4		1.891763527054109e+007,0.000000000000000e+000
	1.406504554016243e-001,2.333383042994103e-001
	-7.642121463033919e-003,4.962298381169363e-003
	1.000000000000000e+000,0.000000000000000e+000
	-1.528424292606784e-003,9.924596762338727e-004
	1.743261678756378e-003,-1.050794252308725e-003
	2.148373861495939e-004,-5.833457607485258e-005
	-1.528424292606784e-003,9.924596762338727e-004
	-2.148373861495939e-004,5.833457607485258e-005
5		1.892204408817636e+007,0.000000000000000e+000
	1.415335713418808e-001,2.337674324614916e-001
	-7.657220733356439e-003,4.993518744079733e-003
	1.000000000000000e+000,0.000000000000000e+000
	-1.531444146671288e-003,9.987037488159466e-004
	1.746060753835818e-003,-1.057145606931319e-003
	2.146166071645298e-004,-5.844185811537291e-005
	-1.531444146671288e-003,9.987037488159466e-004
	-2.146166071645298e-004,5.844185811537291e-005
6		1.892645290581163e+007,0.000000000000000e+000
	1.424235158827525e-001,2.341955521000307e-001
	-7.672284363476234e-003,5.024980534747884e-003
	1.000000000000000e+000,0.000000000000000e+000
	-1.534456872695247e-003,1.004996106949577e-003
	1.748850993724559e-003,-1.063544994974585e-003
	2.143941210293119e-004,-5.854888802500768e-005
	-1.534456872695247e-003,1.004996106949577e-003
	-2.143941210293119e-004,5.854888802500768e-005
7		1.893086172344690e+007,0.000000000000000e+000
	1.433203426354287e-001,2.346226136126299e-001
	-7.687310599678104e-003,5.056685648615592e-003
	1.000000000000000e+000,0.000000000000000e+000
	-1.537462119935621e-003,1.011337129723119e-003
	1.751632034276764e-003,-1.069992783126276e-003
	2.141699143411428e-004,-5.865565340315747e-005
	-1.537462119935621e-003,1.011337129723119e-003
	-2.141699143411428e-004,5.865565340315747e-005
8		1.893527054108217e+007,0.000000000000000e+000
	1.442241054388846e-001,2.350485663888618e-001
	-7.702297652607631e-003,5.088635989178097e-003
	1.000000000000000e+000,0.000000000000000e+000
	-1.540459530521526e-003,1.017727197835620e-003
	1.754403504161805e-003,-1.076489339432835e-003
	2.139439736402789e-004,-5.876214159721546e-005
	-1.540459530521526e-003,1.017727197835620e-003
	-2.139439736402789e-004,5.876214159721546e-005
9		1.893967935871745e+007,0.000000000000000e+000
	1.451348583530526e-001,2.354733587932582e-001
	-7.717243696669721e-003,5.120833467742648e-003
	1.000000000000000e+000,0.000000000000000e+000
	-1.543448739333944e-003,1.024166693548530e-003
	1.757165024745681e-003,-1.083035033246845e-003
	2.137162854117369e-004,-5.886833969831456e-005
	-1.543448739333944e-003,1.024166693548530e-003
	-2.137162854117369e-004,5.886833969831456e-005
10		1.894408817635272e+007,0.000000000000000e+000
	1.460526556516647e-001,2.358969381480811e-001
	-7.732146869419492e-003,5.153280003175457e-003
	1.000000000000000e+000,0.000000000000000e+000
	-1.546429373883898e-003,1.030656000635091e-003
	1.759916209970982e-003,-1.089630235172112e-003
	2.134868360870838e-004,-5.897423453702029e-005
	-1.546429373883898e-003,1.030656000635091e-003
	-2.134868360870838e-004,5.897423453702029e-005
11		1.894849699398799e+007,0.000000000000000e+000
	1.469775518147641e-001,2.363192507158823e-001
	-7.747005270945639e-003,5.185977521636922e-003
	1.000000000000000e+000,0.000000000000000e+000
	-1.549401054189128e-003,1.037195504327384e-003
	1.762656666235437e-003,-1.096275317006355e-003
	2.132556120463090e-004,-5.907981267897058e-005
	-1.549401054189128e-003,1.037195504327384e-003
	-2.132556120463090e-004,5.907981267897058e-005
12		1.895290581162326e+007,0.000000000000000e+000
	1.479096015208592e-001,2.367402416818424e-001
	-7.761816963246048e-003,5.218927956304269e-003
	1.000000000000000e+000,0.000000000000000e+000
	-1.552363392649210e-003,1.043785591260854e-003
	1.765385992268995e-003,-1.102970651681315e-003
	2.130225996197852e-004,-5.918506042046060e-005
	-1.552363392649210e-003,1.043785591260854e-003
	-2.130225996197852e-004,5.918506042046060e-005
13		1.895731462925853e+007,0.000000000000000e+000
	1.488488596387350e-001,2.371598551359023e-001
	-7.776579969596025e-003,5.252133247081997e-003
	1.000000000000000e+000,0.000000000000000e+000
	-1.555315993919205e-003,1.050426649416400e-003
	1.768103779009521e-003,-1.109716613200375e-003
	2.127877850903163e-004,-5.928996378397558e-005
	-1.555315993919205e-003,1.050426649416400e-003
	-2.127877850903163e-004,5.928996378397558e-005
14		1.896172344689380e+007,0.000000000000000e+000
	1.497953812188853e-001,2.375780340546756e-001
	-7.791292273908825e-003,5.285595340298999e-003
	1.000000000000000e+000,0.000000000000000e+000
	-1.558258454781766e-003,1.057119068059800e-003
	1.770809609477044e-003,-1.116513576573469e-003
	2.125511546952787e-004,-5.939450851366891e-005
	-1.558258454781765e-003,1.057119068059800e-003
	-2.125511546952787e-004,5.939450851366891e-005
15		1.896613226452908e+007,0.000000000000000e+000
	1.507492214845766e-001,2.379947202831531e-001
	-7.805951820088793e-003,5.319316188392590e-003
	1.000000000000000e+000,0.000000000000000e+000
	-1.561190364017759e-003,1.063863237678518e-003
	1.773503058646615e-003,-1.123361917749306e-003
	2.123126946288559e-004,-5.949868007078828e-005
	-1.561190364017759e-003,1.063863237678518e-003
	-2.123126946288559e-004,5.949868007078828e-005
16		1.897054108216435e+007,0.000000000000000e+000
	1.517104358225122e-001,2.384098545161904e-001
	-7.820556511376853e-003,5.353297749578453e-003
	1.000000000000000e+000,0.000000000000000e+000
	-1.564111302275371e-003,1.070659549915691e-003
	1.776183693319743e-003,-1.130262013544738e-003
	2.120723910443720e-004,-5.960246362904760e-005
	-1.564111302275371e-003,1.070659549915691e-003
	-2.120723910443720e-004,5.960246362904760e-005
17		1.897494989979962e+007,0.000000000000000e+000
	1.526790797731107e-001,2.388233762797929e-001
	-7.835104209688843e-003,5.387541987506935e-003
	1.000000000000000e+000,0.000000000000000e+000
	-1.567020841937769e-003,1.077508397501387e-003
	1.778851071994491e-003,-1.137214241571335e-003
	2.118302300567223e-004,-5.970584406994823e-005
	-1.567020841937769e-003,1.077508397501387e-003
	-2.118302300567224e-004,5.970584406994823e-005
18		1.897935871743489e+007,0.000000000000000e+000
	1.536552090203583e-001,2.392352239121851e-001
	-7.849592734946197e-003,5.422050870904256e-003
	1.000000000000000e+000,0.000000000000000e+000
	-1.569918546989240e-003,1.084410174180851e-003
	1.781504744734150e-003,-1.144218980158898e-003
	2.115861977449104e-004,-5.980880597804626e-005
	-1.569918546989240e-003,1.084410174180851e-003
	-2.115861977449104e-004,5.980880597804626e-005
19		1.898376753507016e+007,0.000000000000000e+000
	1.546388793812485e-001,2.396453345446776e-001
	-7.864019864399524e-003,5.456826373199159e-003
	1.000000000000000e+000,0.000000000000000e+000
	-1.572803972879905e-003,1.091365274639832e-003
	1.784144253034592e-003,-1.151276608276001e-003
	2.113402801546879e-004,-5.991133363616941e-005
	-1.572803972879905e-003,1.091365274639832e-003
	-2.113402801546879e-004,5.991133363616941e-005
20		1.898817635270543e+007,0.000000000000000e+000
	1.556301467947838e-001,2.400536440823300e-001
	-7.878383331944879e-003,5.491870472134046e-003
	1.000000000000000e+000,0.000000000000000e+000
	-1.575676666388976e-003,1.098374094426809e-003
	1.786769129690280e-003,-1.158387505447392e-003
	2.110924633013041e-004,-6.001341102058252e-005
	-1.575676666388976e-003,1.098374094426809e-003
	-2.110924633013041e-004,6.001341102058252e-005
21		1.899258517034071e+007,0.000000000000000e+000
	1.566290673105276e-001,2.404600871844085e-001
	-7.892680827432908e-003,5.527185149360256e-003
	1.000000000000000e+000,0.000000000000000e+000
	-1.578536165486582e-003,1.105437029872051e-003
	1.789378898658950e-003,-1.165552051668153e-003
	2.108427331723681e-004,-6.011502179610214e-005
	-1.578536165486582e-003,1.105437029872051e-003
	-2.108427331723681e-004,6.011502179610214e-005
22		1.899699398797598e+007,0.000000000000000e+000
	1.576356970767022e-001,2.408645972446472e-001
	-7.906909995970919e-003,5.562772390017229e-003
	1.000000000000000e+000,0.000000000000000e+000
	-1.581381999194184e-003,1.112554478003446e-003
	1.791973074925008e-003,-1.172770627314608e-003
	2.105910757308245e-004,-6.021614931116180e-005
	-1.581381999194184e-003,1.112554478003446e-003
	-2.105910757308244e-004,6.021614931116180e-005
23		1.900140280561125e+007,0.000000000000000e+000
	1.586500923278103e-001,2.412671063713111e-001
	-7.921068437218039e-003,5.598634182294885e-003
	1.000000000000000e+000,0.000000000000000e+000
	-1.584213687443608e-003,1.119726836458977e-003
	1.794551164361655e-003,-1.180043613051805e-003
	2.103374769180475e-004,-6.031677659282778e-005
	-1.584213687443608e-003,1.119726836458977e-003
	-2.103374769180474e-004,6.031677659282778e-005
24		1.900581162324652e+007,0.000000000000000e+000
	1.596723093717715e-001,2.416675453670652e-001
	-7.935153704673461e-003,5.634772516978825e-003
	1.000000000000000e+000,0.000000000000000e+000
	-1.587030740934692e-003,1.126954503395765e-003
	1.797112663591749e-003,-1.187371389737531e-003
	2.100819226570571e-004,-6.041688634176630e-005
	-1.587030740934692e-003,1.126954503395765e-003
	-2.100819226570571e-004,6.041688634176630e-005
25		1.901022044088179e+007,0.000000000000000e+000
	1.607024045765655e-001,2.420658437086558e-001
	-7.949163304958078e-003,5.671189386978092e-003
	1.000000000000000e+000,0.000000000000000e+000
	-1.589832660991616e-003,1.134237877395618e-003
	1.799657059847474e-003,-1.194754338322783e-003
	2.098243988558586e-004,-6.051646092716394e-005
	-1.589832660991616e-003,1.134237877395618e-003
	-2.098243988558586e-004,6.051646092716394e-005
26		1.901462925851706e+007,0.000000000000000e+000
	1.617404343563549e-001,2.424619295264017e-001
	-7.963094697089383e-003,5.707886786834546e-003
	1.000000000000000e+000,0.000000000000000e+000
	-1.592618939417877e-003,1.141577357366909e-003
	1.802183830828788e-003,-1.202192839748510e-003
	2.095648914109113e-004,-6.061548238160043e-005
	-1.592618939417877e-003,1.141577357366909e-003
	-2.095648914109113e-004,6.061548238160043e-005
27		1.901903807615234e+007,0.000000000000000e+000
	1.627864551570953e-001,2.428557295835086e-001
	-7.976945291750130e-003,5.744866712214088e-003
	1.000000000000000e+000,0.000000000000000e+000
	-1.595389058350026e-003,1.148973342442818e-003
	1.804692444560752e-003,-1.209687274838695e-003
	2.093033862107262e-004,-6.071393239587715e-005
	-1.595389058350026e-003,1.148973342442818e-003
	-2.093033862107262e-004,6.071393239587715e-005
28		1.902344689378761e+007,0.000000000000000e+000
	1.638405234415927e-001,2.432471692552002e-001
	-7.990712450550488e-003,5.782131159378385e-003
	1.000000000000000e+000,0.000000000000000e+000
	-1.598142490110098e-003,1.156426231875677e-003
	1.807182359249700e-003,-1.217238024189477e-003
	2.090398691396018e-004,-6.081179231380004e-005
	-1.598142490110098e-003,1.156426231875677e-003
	-2.090398691396018e-004,6.081179231380004e-005
29		1.902785571142288e+007,0.000000000000000e+000
	1.649026956740226e-001,2.436361725076822e-001
	-8.004393485284339e-003,5.819682124637515e-003
	1.000000000000000e+000,0.000000000000000e+000
	-1.600878697056868e-003,1.163936424927503e-003
	1.809653023138362e-003,-1.224845468054424e-003
	2.087743260814944e-004,-6.090904312692056e-005
	-1.600878697056868e-003,1.163936424927503e-003
	-2.087743260814943e-004,6.090904312692056e-005
30		1.903226452905815e+007,0.000000000000000e+000
	1.659730283038640e-001,2.440226618769326e-001
	-8.017985657179360e-003,5.857521603781953e-003
	1.000000000000000e+000,0.000000000000000e+000
	-1.603597131435872e-003,1.171504320756391e-003
	1.812103874359906e-003,-1.232509986225624e-003
	2.085067429240340e-004,-6.100566546923316e-005
	-1.603597131435872e-003,1.171504320756391e-003
	-2.085067429240340e-004,6.100566546923316e-005
31		1.903667334669342e+007,0.000000000000000e+000
	1.670515777492671e-001,2.444065584473351e-001
	-8.031486176141635e-003,5.895651591494539e-003
	1.000000000000000e+000,0.000000000000000e+000
	-1.606297235228327e-003,1.179130318298908e-003
	1.814534340791011e-003,-1.240231957910742e-003
	2.082371055626833e-004,-6.110163961183378e-005
	-1.606297235228327e-003,1.179130318298908e-003
	-2.082371055626832e-004,6.110163961183378e-005
32		1.904108216432869e+007,0.000000000000000e+000
	1.681384003798146e-001,2.447877818301536e-001
	-8.044892199994604e-003,5.934074080740997e-003
	1.000000000000000e+000,0.000000000000000e+000
	-1.608978439998921e-003,1.186814816148200e-003
	1.816943839903967e-003,-1.248011761605738e-003
	2.079653999050463e-004,-6.119694545753841e-005
	-1.608978439998921e-003,1.186814816148200e-003
	-2.079653999050464e-004,6.119694545753841e-005
33		1.904549098196397e+007,0.000000000000000e+000
	1.692335524986725e-001,2.451662501418577e-001
	-8.058200833712743e-003,5.972791062138854e-003
	1.000000000000000e+000,0.000000000000000e+000
	-1.611640166742548e-003,1.194558212427771e-003
	1.819331778617880e-003,-1.255849774963235e-003
	2.076916118753319e-004,-6.129156253546442e-005
	-1.611640166742549e-003,1.194558212427771e-003
	-2.076916118753319e-004,6.129156253546442e-005
34		1.904989979959924e+007,0.000000000000000e+000
	1.703370903241158e-001,2.455418799823064e-001
	-8.071409128650248e-003,6.011804523304297e-003
	1.000000000000000e+000,0.000000000000000e+000
	-1.614281825730050e-003,1.202360904660860e-003
	1.821697553149021e-003,-1.263746374656436e-003
	2.074157274189711e-004,-6.138546999557661e-005
	-1.614281825730050e-003,1.202360904660859e-003
	-2.074157274189711e-004,6.138546999557661e-005
35		1.905430861723451e+007,0.000000000000000e+000
	1.714490699704103e-001,2.459145864127958e-001
	-8.084514081764910e-003,6.051116448176230e-003
	1.000000000000000e+000,0.000000000000000e+000
	-1.616902816352982e-003,1.210223289635246e-003
	1.824040548860379e-003,-1.271701936238445e-003
	2.071377325073974e-004,-6.147864660319896e-005
	-1.616902816352982e-003,1.210223289635246e-003
	-2.071377325073974e-004,6.147864660319896e-005
36		1.905871743486978e+007,0.000000000000000e+000
	1.725695474280296e-001,2.462842829339779e-001
	-8.097512634837411e-003,6.090728816316835e-003
	1.000000000000000e+000,0.000000000000000e+000
	-1.619502526967482e-003,1.218145763263367e-003
	1.826360140110475e-003,-1.279716833996861e-003
	2.068576131429926e-004,-6.157107073349447e-005
	-1.619502526967482e-003,1.218145763263367e-003
	-2.068576131429926e-004,6.157107073349447e-005
37		1.906312625250505e+007,0.000000000000000e+000
	1.736985785432029e-001,2.466508814636609e-001
	-8.110401673686469e-003,6.130643602188492e-003
	1.000000000000000e+000,0.000000000000000e+000
	-1.622080334737294e-003,1.226128720437698e-003
	1.828655690101493e-003,-1.287791440803614e-003
	2.065753553641993e-004,-6.166272036591521e-005
	-1.622080334737294e-003,1.226128720437698e-003
	-2.065753553641993e-004,6.166272036591521e-005
38		1.906753507014033e+007,0.000000000000000e+000
	1.748362189967699e-001,2.470142923145003e-001
	-8.123178027380084e-003,6.170862774406176e-003
	1.000000000000000e+000,0.000000000000000e+000
	-1.624635605476017e-003,1.234172554881236e-003
	1.830926550726825e-003,-1.295926127959861e-003
	2.062909452508075e-004,-6.175357307862509e-005
	-1.624635605476017e-003,1.234172554881235e-003
	-2.062909452508075e-004,6.175357307862509e-005
39		1.907194388777560e+007,0.000000000000000e+000
	1.759825242823236e-001,2.473744241715859e-001
	-8.135838467443111e-003,6.211388294964698e-003
	1.000000000000000e+000,0.000000000000000e+000
	-1.627167693488622e-003,1.242277658992940e-003
	1.833172062418042e-003,-1.304121265035836e-003
	2.060043689294191e-004,-6.184360604289649e-005
	-1.627167693488622e-003,1.242277658992940e-003
	-2.060043689294191e-004,6.184360604289649e-005
40		1.907635270541087e+007,0.000000000000000e+000
	1.771375496836321e-001,2.477311840699396e-001
	-8.148379707061709e-003,6.252222118440427e-003
	1.000000000000000e+000,0.000000000000000e+000
	-1.629675941412341e-003,1.250444423688085e-003
	1.835391553991434e-003,-1.312377219705570e-003
	2.057156125790920e-004,-6.193279601748491e-005
	-1.629675941412342e-003,1.250444423688085e-003
	-2.057156125790920e-004,6.193279601748491e-005
41		1.908076152304614e+007,0.000000000000000e+000
	1.783013502513213e-001,2.480844773719323e-001
	-8.160798400284887e-003,6.293366191166922e-003
	1.000000000000000e+000,0.000000000000000e+000
	-1.632159680056977e-003,1.258673238233384e-003
	1.837584342494147e-003,-1.320694357576367e-003
	2.054246624371697e-004,-6.202111934298307e-005
	-1.632159680056978e-003,1.258673238233385e-003
	-2.054246624371697e-004,6.202111934298307e-005
42		1.908517034068141e+007,0.000000000000000e+000
	1.794739807787856e-001,2.484342077446283e-001
	-8.173091141223526e-003,6.334822450383219e-003
	1.000000000000000e+000,0.000000000000000e+000
	-1.634618228244705e-003,1.266964490076644e-003
	1.839749733050009e-003,-1.329073042012801e-003
	2.051315048053036e-004,-6.210855193615708e-005
	-1.634618228244705e-003,1.266964490076644e-003
	-2.051315048053036e-004,6.210855193615708e-005
43		1.908957915831668e+007,0.000000000000000e+000
	1.806554957773350e-001,2.487802771370739e-001
	-8.185254463247395e-003,6.376592823355182e-003
	1.000000000000000e+000,0.000000000000000e+000
	-1.637050892649479e-003,1.275318564671036e-003
	1.841887018705146e-003,-1.337513633955305e-003
	2.048361260556663e-004,-6.219506928426846e-005
	-1.637050892649479e-003,1.275318564671037e-003
	-2.048361260556663e-004,6.219506928426846e-005
44		1.909398797595196e+007,0.000000000000000e+000
	1.818459494505396e-001,2.491225857575388e-001
	-8.197284838180521e-003,6.418679226468420e-003
	1.000000000000000e+000,0.000000000000000e+000
	-1.639456967636104e-003,1.283735845293684e-003
	1.843995480273469e-003,-1.346016491733069e-003
	2.045385126373651e-004,-6.228064643938469e-005
	-1.639456967636104e-003,1.283735845293684e-003
	-2.045385126373651e-004,6.228064643938469e-005
45		1.909839679358723e+007,0.000000000000000e+000
	1.830453956677684e-001,2.494610320507250e-001
	-8.209178675495395e-003,6.461083564292739e-003
	1.000000000000000e+000,0.000000000000000e+000
	-1.641835735099079e-003,1.292216712858548e-003
	1.846074386182137e-003,-1.354581970871229e-003
	2.042386510830579e-004,-6.236525801268125e-005
	-1.641835735099079e-003,1.292216712858548e-003
	-2.042386510830579e-004,6.236525801268125e-005
46		1.910280561122250e+007,0.000000000000000e+000
	1.842538879368877e-001,2.497955126749545e-001
	-8.220932321506448e-003,6.503807728616915e-003
	1.000000000000000e+000,0.000000000000000e+000
	-1.644186464301290e-003,1.300761545723383e-003
	1.848122992317068e-003,-1.363210423892122e-003
	2.039365280157781e-004,-6.244887816873862e-005
	-1.644186464301290e-003,1.300761545723383e-003
	-2.039365280157781e-004,6.244887816873862e-005
47		1.910721442885777e+007,0.000000000000000e+000
	1.854714793761239e-001,2.501259224793545e-001
	-8.232542058563407e-003,6.546853597453853e-003
	1.000000000000000e+000,0.000000000000000e+000
	-1.646508411712681e-003,1.309370719490771e-003
	1.850140541868650e-003,-1.371902200110609e-003
	2.036321301559690e-004,-6.253148061983861e-005
	-1.646508411712681e-003,1.309370719490771e-003
	-2.036321301559690e-004,6.253148061983861e-005
48		1.911162324649304e+007,0.000000000000000e+000
	1.866982226850495e-001,2.504521544810497e-001
	-8.244004104244944e-003,6.590223034014821e-003
	1.000000000000000e+000,0.000000000000000e+000
	-1.648800820848989e-003,1.318044606802964e-003
	1.852126265177727e-003,-1.380657645423227e-003
	2.033254443287376e-004,-6.261303862026242e-005
	-1.648800820848989e-003,1.318044606802964e-003
	-2.033254443287376e-004,6.261303862026242e-005
49		1.911603206412831e+007,0.000000000000000e+000
	1.879341701146839e-001,2.507740998423805e-001
	-8.255314610553196e-003,6.633917885652327e-003
	1.000000000000000e+000,0.000000000000000e+000
	-1.651062922110639e-003,1.326783577130466e-003
	1.854079379581968e-003,-1.389477102091061e-003
	2.030164574713291e-004,-6.269352496059511e-005
	-1.651062922110639e-003,1.326783577130466e-003
	-2.030164574713290e-004,6.269352496059511e-005
50		1.912044088176359e+007,0.000000000000000e+000
	1.891793734366990e-001,2.510916478481649e-001
	-8.266469663109866e-003,6.677939982771402e-003
	1.000000000000000e+000,0.000000000000000e+000
	-1.653293932621973e-003,1.335587996554281e-003
	1.855999089262799e-003,-1.398360908516322e-003
	2.027051566408253e-004,-6.277291196204123e-005
	-1.653293932621973e-003,1.335587996554281e-003
	-2.027051566408253e-004,6.277291196204123e-005
51		1.912484969939886e+007,0.000000000000000e+000
	1.904338839116923e-001,2.514046858830177e-001
	-8.277465280354331e-003,6.722291137707856e-003
	1.000000000000000e+000,0.000000000000000e+000
	-1.655493056070866e-003,1.344458227541571e-003
	1.857884585092943e-003,-1.407309399012326e-003
	2.023915290220769e-004,-6.285117147075444e-005
	-1.655493056070866e-003,1.344458227541571e-003
	-2.023915290220769e-004,6.285117147075444e-005
52		1.912925851703413e+007,0.000000000000000e+000
	1.916977522565230e-001,2.517130994087480e-001
	-8.288297412744521e-003,6.766973143573446e-003
	1.000000000000000e+000,0.000000000000000e+000
	-1.657659482548904e-003,1.353394628714689e-003
	1.859735044484774e-003,-1.416322903566877e-003
	2.020755619358693e-004,-6.292827485218701e-005
	-1.657659482548904e-003,1.353394628714689e-003
	-2.020755619358693e-004,6.292827485218701e-005
53		1.913366733466940e+007,0.000000000000000e+000
	1.929710286106910e-001,2.520167719418538e-001
	-8.298961941961234e-003,6.811987773067208e-003
	1.000000000000000e+000,0.000000000000000e+000
	-1.659792388392247e-003,1.362397554613442e-003
	1.861549631239574e-003,-1.425401747598905e-003
	2.017572428473273e-004,-6.300419298546345e-005
	-1.659792388392247e-003,1.362397554613442e-003
	-2.017572428473273e-004,6.300419298546345e-005
54		1.913807615230467e+007,0.000000000000000e+000
	1.942537625017274e-001,2.523155850311308e-001
	-8.309454680116497e-003,6.857336777251801e-003
	1.000000000000000e+000,0.000000000000000e+000
	-1.661890936023300e-003,1.371467355450360e-003
	1.863327495397868e-003,-1.434546251708143e-003
	2.014365593745682e-004,-6.307889625778271e-005
	-1.661890936023300e-003,1.371467355450360e-003
	-2.014365593745682e-004,6.307889625778271e-005
55		1.914248496993994e+007,0.000000000000000e+000
	1.955460028095964e-001,2.526094182354207e-001
	-8.319771368966828e-003,6.903021884294938e-003
	1.000000000000000e+000,0.000000000000000e+000
	-1.663954273793366e-003,1.380604376858988e-003
	1.865067773090967e-003,-1.443756731417843e-003
	2.011134992976009e-004,-6.315235455885517e-005
	-1.663954273793366e-003,1.380604376858988e-003
	-2.011134992976009e-004,6.315235455885517e-005
56		1.914689378757522e+007,0.000000000000000e+000
	1.968477977300737e-001,2.528981491015159e-001
	-8.329907679132076e-003,6.949044798174625e-003
	1.000000000000000e+000,0.000000000000000e+000
	-1.665981535826416e-003,1.389808959634925e-003
	1.866769586393897e-003,-1.453033496910304e-003
	2.007880505674816e-004,-6.322453727537899e-005
	-1.665981535826415e-003,1.389808959634925e-003
	-2.007880505674816e-004,6.322453727537899e-005
57		1.915130260521049e+007,0.000000000000000e+000
	1.981591947370913e-001,2.531816531422475e-001
	-8.339859209320687e-003,6.995407197347829e-003
	1.000000000000000e+000,0.000000000000000e+000
	-1.667971841864138e-003,1.399081439469566e-003
	1.868432043179865e-003,-1.462376852755128e-003
	2.004602013157272e-004,-6.329541328556187e-005
	-1.667971841864138e-003,1.399081439469566e-003
	-2.004602013157272e-004,6.329541328556187e-005
58		1.915571142284576e+007,0.000000000000000e+000
	1.994802405440239e-001,2.534598038147757e-001
	-8.349621485562179e-003,7.042110733381753e-003
	1.000000000000000e+000,0.000000000000000e+000
	-1.669924297112436e-003,1.408422146676351e-003
	1.870054236976430e-003,-1.471787097630045e-003
	2.001299398639940e-004,-6.336495095369392e-005
	-1.669924297112436e-003,1.408422146676351e-003
	-2.001299398639940e-004,6.336495095369392e-005
59		1.916012024048103e+007,0.000000000000000e+000
	2.008109810639065e-001,2.537324724991123e-001
	-8.359189960447782e-003,7.089157029547336e-003
	1.000000000000000e+000,0.000000000000000e+000
	-1.671837992089556e-003,1.417831405909467e-003
	1.871635246823580e-003,-1.481264524034245e-003
	1.997972547340234e-004,-6.343311812477808e-005
	-1.671837992089556e-003,1.417831405909467e-003
	-1.997972547340234e-004,6.343311812477808e-005
60		1.916452905811630e+007,0.000000000000000e+000
	2.021514613685521e-001,2.539995284768959e-001
	-8.368560012380030e-003,7.136547679373812e-003
	1.000000000000000e+000,0.000000000000000e+000
	-1.673712002476006e-003,1.427309535874763e-003
	1.873174137133868e-003,-1.490809417993987e-003
	1.994621346578620e-004,-6.349988211922398e-005
	-1.673712002476006e-003,1.427309535874763e-003
	-1.994621346578620e-004,6.349988211922398e-005
61		1.916893787575157e+007,0.000000000000000e+000
	2.035017256465620e-001,2.542608389104502e-001
	-8.377726944832371e-003,7.184284245164167e-003
	1.000000000000000e+000,0.000000000000000e+000
	-1.675545388966474e-003,1.436856849032834e-003
	1.874669957554834e-003,-1.500422058760446e-003
	1.991245685883595e-004,-6.356520972761255e-005
	-1.675545388966474e-003,1.436856849032833e-003
	-1.991245685883595e-004,6.356520972761255e-005
62		1.917334669338685e+007,0.000000000000000e+000
	2.048618171602026e-001,2.545162688221506e-001
	-8.386685985619652e-003,7.232368256470514e-003
	1.000000000000000e+000,0.000000000000000e+000
	-1.677337197123930e-003,1.446473651294103e-003
	1.876121742833879e-003,-1.510102718499640e-003
	1.987845457099494e-004,-6.362906720553765e-005
	-1.677337197123930e-003,1.446473651294103e-003
	-1.987845457099493e-004,6.362906720553765e-005
63		1.917775551102212e+007,0.000000000000000e+000
	2.062317782011312e-001,2.547656810741295e-001
	-8.395432286180589e-003,7.280801208528733e-003
	1.000000000000000e+000,0.000000000000000e+000
	-1.679086457236118e-003,1.456160241705747e-003
	1.877528512685835e-003,-1.519851661974279e-003
	1.984420554497172e-004,-6.369142026853238e-005
	-1.679086457236118e-003,1.456160241705747e-003
	-1.984420554497172e-004,6.369142026853238e-005
64		1.918216432865739e+007,0.000000000000000e+000
	2.076116500449631e-001,2.550089363483505e-001
	-8.403960920873315e-003,7.329584560652215e-003
	1.000000000000000e+000,0.000000000000000e+000
	-1.680792184174663e-003,1.465916912130443e-003
	1.878889271663422e-003,-1.529669146217531e-003
	1.980970874887592e-004,-6.375223408708764e-005
	-1.680792184174663e-003,1.465916912130443e-003
	-1.980970874887592e-004,6.375223408708764e-005
65		1.918657314629266e+007,0.000000000000000e+000
	2.090014729046408e-001,2.552458931270805e-001
	-8.412266886284922e-003,7.378719734583181e-003
	1.000000000000000e+000,0.000000000000000e+000
	-1.682453377256985e-003,1.475743946916637e-003
	1.880203009030825e-003,-1.539555420198407e-003
	1.977496317738398e-004,-6.381147328177011e-005
	-1.682453377256985e-003,1.475743946916636e-003
	-1.977496317738398e-004,6.381147328177011e-005
66		1.919098196392793e+007,0.000000000000000e+000
	2.104012858826067e-001,2.554764076737939e-001
	-8.420345100556361e-003,7.428208112801752e-003
	1.000000000000000e+000,0.000000000000000e+000
	-1.684069020111273e-003,1.485641622560351e-003
	1.881468698640621e-003,-1.549510724478799e-003
	1.973996785293483e-004,-6.386910191844847e-005
	-1.684069020111272e-003,1.485641622560351e-003
	-1.973996785293483e-004,6.386910191844847e-005
67		1.919539078156320e+007,0.000000000000000e+000
	2.118111269217535e-001,2.557003340145427e-001
	-8.428190402723745e-003,7.478051036791764e-003
	1.000000000000000e+000,0.000000000000000e+000
	-1.685638080544749e-003,1.495610207358353e-003
	1.882685298814311e-003,-1.559535290861989e-003
	1.970472182695616e-004,-6.392508350363567e-005
	-1.685638080544749e-003,1.495610207358353e-003
	-1.970472182695616e-004,6.392508350363567e-005
68		1.919979959919848e+007,0.000000000000000e+000